Created on Mon Sep 16 12:31:29 2024 

        2544 atoms
        2976 bonds
        5712 angles
        5952 dihedrals
        3600 impropers

           6 atom types
          12 bond types
          23 angle types
           5 dihedral types
           1 improper types
           0.000000  50.404929 xlo xhi
           0.000000  50.383699 ylo yhi
           0.000000  50.660109 zlo zhi
          -0.054235   0.003807  -0.057864 xy xz yz

Masses

    1    12.010700000 # C_R
    2     1.007940000 # H_
    3    15.999400000 # O_2
    4    65.380000000 # Zn2f2
    5    14.006700000 # N_R
    6    12.010700000 # C_3

Bond Coeffs

    1      391.669513        1.458000  # C_R C_R
    2      714.557442        1.269010  # C_R O_2
    3      462.655054        1.379256  # C_R C_R
    4      357.440381        1.081418  # C_R H_
    5      111.058393        2.079698  # O_2 Zn2f2
    6      602.435128        0.966432  # O_2 H_
    7       19.441823        3.080101  # Zn2f2 Zn2f2
    8      140.566051        1.988323  # Zn2f2 N_R
    9      663.718927        1.345073  # C_R N_R
   10      529.724731        1.450075  # N_R C_3
   11      331.069389        1.109401  # C_3 H_
   12      369.943935        1.486000  # C_3 C_R

Angle Coeffs

    1              cosine/periodic      137.714246              -1               3 # C_R C_R O_2
    2              cosine/periodic      206.778426              -1               3 # O_2 C_R O_2
    3              cosine/periodic      102.183280              -1               3 # C_R C_R C_R
    4              cosine/periodic      111.297508              -1               3 # C_R C_R C_R
    5              cosine/periodic       57.289016              -1               3 # C_R C_R H_
    6              cosine/periodic       39.441082              -1               3 # C_R O_2 Zn2f2
    7              cosine/periodic       17.706467              -1               3 # Zn2f2 O_2 H_
    8              cosine/periodic       44.863234              -1               3 # H_ O_2 H_
    9              cosine/periodic       46.978550              -1               3 # O_2 Zn2f2 O_2
   10              cosine/periodic       13.328014              -1               3 # O_2 Zn2f2 Zn2f2
   11              cosine/periodic       55.506670              -1               3 # O_2 Zn2f2 N_R
   12              cosine/periodic       15.376901              -1               3 # Zn2f2 Zn2f2 N_R
   13              cosine/periodic       79.786967              -1               3 # H_ C_R N_R
   14              cosine/periodic      153.699352              -1               3 # N_R C_R C_R
   15              cosine/periodic      212.442573              -1               3 # N_R C_R N_R
   16              cosine/periodic      120.000516              -1               3 # C_R N_R C_R
   17              cosine/periodic      106.782348              -1               3 # C_R N_R C_3
   18                      fourier      170.007371        0.343737        0.374972        0.281246 # N_R C_3 H_
   19                      fourier      312.548166        0.343737        0.374972        0.281246 # N_R C_3 C_R
   20                      fourier       75.498766        0.343737        0.374972        0.281246 # H_ C_3 H_
   21                      fourier      121.777217        0.343737        0.374972        0.281246 # H_ C_3 C_R
   22              cosine/periodic       99.137149              -1               3 # C_3 C_R C_R
   23              cosine/periodic       41.111398              -1               3 # Zn2f2 N_R C_R

Dihedral Coeffs

    1        1.250000              -1               2 # O_2 C_R C_R C_R
    2        6.737110              -1               2 # C_R C_R O_2 Zn2f2
    3        3.368555              -1               2 # C_R C_R C_R H_
    4        0.166667               1               3 # C_R N_R C_3 H_
    5        0.833333              -1               2 # N_R C_3 C_R C_R

Improper Coeffs

    1        2.000000        1.000000       -1.000000        0.000000               0 # C_R C_R O_2 O_2

Pair Coeffs

    1        0.105000        3.430851 # C_R C_R
    2        0.044000        2.571134 # H_ H_
    3        0.060000        3.118146 # O_2 O_2
    4        0.124000        2.461553 # Zn2f2 Zn2f2
    5        0.069000        3.260689 # N_R N_R
    6        0.105000        3.430851 # C_3 C_3

Atoms

       1      444        1   0  48.50921    7.92053    5.46935
       2      444        1   0  47.38669    8.66535    4.73378
       3      444        1   0  47.05235    9.95191    5.03622
       4      444        2   0  47.52533   10.41291    5.71885
       5      444        1   0  45.99715   10.61763    4.33971
       6      444        2   0  45.74458   11.50870    4.54675
       7      444        1   0  45.36077    9.89302    3.34017
       8      444        2   0  44.63815   10.28375    2.86655
       9      444        1   0  45.75421    8.63780    3.03255
      10      444        1   0  46.80527    8.00142    3.69376
      11      444        2   0  47.10128    7.13649    3.43282
      12      444        1   0  44.94911    7.89409    1.88138
      13      444        1   0  48.55133    5.44808    8.05039
      14      444        1   0  47.43824    4.69906    8.83306
      15      444        1   0  46.99669    5.11105   10.05704
      16      444        2   0  47.39196    5.86536   10.47594
      17      444        1   0  45.99799    4.44190   10.66779
      18      444        2   0  45.73036    4.70797   11.53890
      19      444        1   0  45.34678    3.36581   10.05213
      20      444        2   0  44.61485    2.93675   10.48123
      21      444        1   0  45.78691    2.92727    8.80556
      22      444        1   0  46.81655    3.59750    8.17773
      23      444        2   0  47.10516    3.32885    7.31524
      24      444        1   0  45.07731    1.80344    8.09752
      25      444        1   0   1.87550    5.49524    8.03990
      26      444        1   0   3.05746    4.77580    8.69285
      27      444        1   0   3.56486    5.32303    9.89230
      28      444        2   0   3.13343    6.06790   10.29597
      29      444        1   0   4.71383    4.76007   10.49490
      30      444        2   0   5.10928    5.14961   11.26717
      31      444        1   0   5.26796    3.55456    9.88113
      32      444        2   0   6.01324    3.11169   10.27308
      33      444        1   0   4.69690    3.06941    8.73035
      34      444        1   0   3.61144    3.64825    8.12425
      35      444        2   0   3.24618    3.27922    7.32804
      36      444        1   0   5.34560    1.86542    7.97787
      37      444        1   0   1.82179    7.88858    5.50502
      38      444        1   0   2.98248    8.64697    4.75246
      39      444        1   0   3.44414    9.88515    5.23631
      40      444        2   0   3.05178   10.28748    6.00397
      41      444        1   0   4.51506   10.52017    4.53485
      42      444        2   0   4.79594   11.38815    4.80121
      43      444        1   0   5.16715    9.88201    3.45352
      44      444        2   0   5.90977   10.28767    3.01748
      45      444        1   0   4.68457    8.62879    3.05041
      46      444        1   0   3.60160    7.98917    3.70151
      47      444        2   0   3.30895    7.12947    3.42196
      48      444        1   0   5.36525    7.89316    1.90858
      49      444        1   0  42.53414    5.41991   48.75556
      50      444        1   0  41.91381    4.77057   47.50740
      51      444        1   0  40.71963    5.30161   46.97970
      52      444        2   0  40.32166    6.05501   47.39663
      53      444        1   0  40.10036    4.72619   45.82201
      54      444        2   0  39.27540    5.04771   45.48214
      55      444        1   0  40.79696    3.64469   45.21005
      56      444        2   0  40.46496    3.27135   44.40238
      57      444        1   0  41.92504    3.14349   45.75950
      58      444        1   0  42.52689    3.69423   46.88200
      59      444        2   0  43.34282    3.34002   47.21702
      60      444        1   0  42.63953    1.93595   45.02113
      61      444        1   0  42.52356    5.34914    1.84147
      62      444        1   0  41.78780    4.66198    3.04612
      63      444        1   0  40.51218    5.08174    3.48722
      64      444        2   0  40.03686    5.75169    3.00913
      65      444        1   0  39.96321    4.51614    4.60679
      66      444        2   0  39.12639    4.82127    4.93845
      67      444        1   0  40.61080    3.54205    5.22013
      68      444        2   0  40.22598    3.14412    5.99332
      69      444        1   0  41.86372    3.08261    4.75371
      70      444        1   0  42.45690    3.59118    3.67186
      71      444        2   0  43.28179    3.25128    3.34291
      72      444        1   0  42.54873    1.89259    5.53065
      73      444        1   0  44.95740    7.90291   48.83166
      74      444        1   0  45.68781    8.60603   47.68228
      75      444        1   0  45.28972    9.92350   47.25686
      76      444        2   0  44.60449   10.39264   47.72305
      77      444        1   0  45.90331   10.50093   46.16664
      78      444        2   0  45.60027   11.33536   45.82727
      79      444        1   0  46.91774    9.87920   45.60482
      80      444        2   0  47.39079   10.32888   44.91538
      81      444        1   0  47.33830    8.62626   45.94885
      82      444        1   0  46.68335    8.01118   47.04190
      83      444        2   0  46.96636    7.15064   47.32265
      84      444        1   0  48.49847    7.94261   45.17894
      85      444        1   0  42.46196   48.57877    5.39331
      86      444        1   0  41.69422   47.52570    4.65364
      87      444        1   0  40.39837   47.27245    4.86446
      88      444        2   0  39.94483   47.75353    5.54765
      89      444        1   0  39.68350   46.32738    4.11653
      90      444        2   0  38.76674   46.17043    4.29993
      91      444        1   0  40.33709   45.59749    3.07632
      92      444        2   0  39.85703   44.97436    2.54472
      93      444        1   0  41.71312   45.83158    2.86155
      94      444        1   0  42.36457   46.83377    3.60538
      95      444        2   0  43.26601   47.05217    3.40310
      96      444        1   0  42.47011   45.06613    1.85293
      97      444        1   0  44.94316   48.47133    7.96165
      98      444        1   0  45.62122   47.26303    8.65041
      99      444        1   0  45.10947   46.76823    9.83378
     100      444        2   0  44.37502   47.22191   10.22730
     101      444        1   0  45.62630   45.61290   10.49699
     102      444        2   0  45.21413   45.23277   11.26527
     103      444        1   0  46.81608   45.07035    9.90993
     104      444        2   0  47.29100   44.39321   10.37720
     105      444        1   0  47.29528   45.49772    8.69148
     106      444        1   0  46.70085   46.68787    8.09016
     107      444        2   0  47.07720   47.05417    7.29902
     108      444        1   0  48.50580   44.85039    7.95771
     109      444        1   0  48.50210    5.41926   42.59101
     110      444        1   0  47.44249    4.71208   41.88388
     111      444        1   0  46.98466    5.16839   40.57487
     112      444        2   0  47.41615    5.89070   40.13292
     113      444        1   0  45.89075    4.51022   39.97897
     114      444        2   0  45.56983    4.83308   39.14457
     115      444        1   0  45.26392    3.42907   40.54561
     116      444        2   0  44.54703    2.99454   40.09877
     117      444        1   0  45.70224    2.98408   41.79111
     118      444        1   0  46.83161    3.61231   42.43977
     119      444        2   0  47.15575    3.26063   43.25853
     120      444        1   0  45.07642    1.79500   42.47770
     121      444        1   0   1.80335    7.92179   45.27031
     122      444        1   0   2.92055    8.62125   46.02583
     123      444        1   0   3.27303    9.92168   45.62912
     124      444        2   0   2.76426   10.37825   44.97019
     125      444        1   0   4.37387   10.52382   46.20773
     126      444        2   0   4.68498   11.36231   45.89513
     127      444        1   0   5.04112    9.85395   47.29863
     128      444        2   0   5.76874   10.27788   47.73835
     129      444        1   0   4.61745    8.58233   47.71037
     130      444        1   0   3.53216    8.00466   47.07692
     131      444        2   0   3.20911    7.16341   47.37932
     132      444        1   0   5.36303    7.85674   48.80696
     133      444        1   0   7.86763    5.29393    1.83870
     134      444        1   0   8.58228    4.48723    2.91596
     135      444        1   0   9.94462    4.84472    3.25272
     136      444        2   0  10.38441    5.54171    2.77823
     137      444        1   0  10.58340    4.18537    4.24531
     138      444        2   0  11.46458    4.44335    4.48832
     139      444        1   0   9.96069    3.12640    4.91003
     140      444        2   0  10.43386    2.61239    5.55525
     141      444        1   0   8.56954    2.82231    4.60012
     142      444        1   0   7.94143    3.49361    3.57169
     143      444        2   0   7.05575    3.25836    3.32208
     144      444        1   0   7.84799    1.72017    5.45008
     145      444        3   0  48.92303    6.87438    4.95413
     146      444        3   0  48.92272    8.53067    6.50873
     147      444        3   0  48.96301    4.89096    7.01420
     148      444        3   0  48.94592    6.49919    8.61237
     149      444        3   0   1.42070    4.92851    6.98143
     150      444        3   0   1.43666    6.54404    8.57191
     151      444        3   0   1.41442    6.88720    4.96721
     152      444        3   0   1.40495    8.53613    6.54060
     153      444        3   0  43.56653    4.86941   49.15175
     154      444        3   0  41.94282    6.43925   49.19015
     155      444        3   0  43.54764    4.85567    1.41373
     156      444        3   0  41.92425    6.41674    1.41776
     157      444        3   0  45.51811    6.83721    1.45005
     158      444        3   0  43.90604    8.45340    1.47704
     159      444        3   0  45.55323    6.87595   49.21338
     160      444        3   0  43.92504    8.46515   49.26117
     161      444        3   0  43.53472   48.96804    4.91560
     162      444        3   0  41.88111   48.99160    6.45700
     163      444        3   0  45.52750   48.88720    6.94920
     164      444        3   0  43.89018   48.87258    8.53233
     165      444        3   0  45.58054    1.41275    7.01752
     166      444        3   0  43.99565    1.38837    8.59277
     167      444        3   0  43.64014    1.50906    4.98267
     168      444        3   0  41.99885    1.47096    6.58281
     169      444        3   0  48.91016    4.87990   43.64467
     170      444        3   0  48.94712    6.50152   42.08164
     171      444        3   0  48.89984    6.82667   45.72646
     172      444        3   0  48.89789    8.46163   44.18286
     173      444        3   0   1.35449    6.84021   45.76163
     174      444        3   0   1.34731    8.50026   44.21312
     175      444        3   0   1.43447    4.88574   43.69852
     176      444        3   0   1.47138    6.52755   42.15987
     177      444        3   0   4.80275    6.83277   49.24469
     178      444        3   0   6.43201    8.38830   49.25033
     179      444        3   0   4.82821    6.84678    1.49950
     180      444        3   0   6.42740    8.38969    1.48070
     181      444        3   0   6.80780    4.79173    1.42863
     182      444        3   0   8.39618    6.34655    1.42217
     183      444        3   0   6.78294    4.75129   49.23668
     184      444        3   0   8.47081    6.32083   49.24937
     185      444        3   0  45.54091   48.92525   43.66051
     186      444        3   0  43.87219   48.84063   42.10123
     187      444        3   0  43.57617   48.99288   45.73692
     188      444        3   0  41.89321   49.01100   44.20558
     189      444        3   0  43.65970    1.49044   45.63441
     190      444        3   0  42.03874    1.47676   44.02006
     191      444        3   0  45.60095    1.45362   43.57858
     192      444        3   0  44.03757    1.34579   41.97631
     193      444        3   0  50.36943    4.13248    4.29944
     194      444        3   0  46.23767    4.10879   50.60297
     195      444        3   0  46.31065    0.15421    4.27973
     196      444        3   0  50.08795    3.98006   46.35845
     197      444        3   0   4.09325    4.09889   50.62707
     198      444        3   0  46.40725    0.14786   46.28544
     199      444        4   0  50.38048    5.84839    5.94005
     200      444        4   0  50.38215    7.56563    7.61678
     201      444        4   0  44.58170    5.83120    0.00183
     202      444        4   0  42.87358    7.51583    0.02540
     203      444        4   0  44.65135    0.00225    5.93113
     204      444        4   0  42.87564   50.36553    7.59596
     205      444        4   0  50.34800    5.80836   44.76015
     206      444        4   0  50.37174    7.54560   43.09956
     207      444        4   0   5.75203    5.78802    0.00998
     208      444        4   0   7.47016    7.45800    0.01810
     209      444        4   0  44.67824    0.01631   44.68873
     210      444        4   0  42.94503   -0.03003   43.03277
     211      444        1   0   1.84522   42.40611   45.19049
     212      444        1   0   2.96684   41.66114   45.92646
     213      444        1   0   3.30118   40.37458   45.62403
     214      444        2   0   2.82846   39.91264   44.94164
     215      444        1   0   4.35728   39.70901   46.32013
     216      444        2   0   4.61012   38.81701   46.11333
     217      444        1   0   4.99366   40.43361   47.31967
     218      444        2   0   5.71654   40.04196   47.79353
     219      444        1   0   4.59958   41.68775   47.62794
     220      444        1   0   3.54916   42.32522   46.96608
     221      444        2   0   3.25342   43.18922   47.22726
     222      444        1   0   5.40558   42.43161   48.77871
     223      444        1   0   1.80337   44.87763   42.60969
     224      444        1   0   2.91555   45.62649   41.82743
     225      444        1   0   3.35801   45.21466   40.60305
     226      444        2   0   2.96157   44.46113   40.18431
     227      444        1   0   4.35671   45.88380   39.99229
     228      444        2   0   4.62434   45.61774   39.12118
     229      444        1   0   5.00765   46.96083   40.60771
     230      444        2   0   5.73894   47.38881   40.17926
     231      444        1   0   4.56688   47.39829   41.85493
     232      444        1   0   3.53814   46.72821   42.48235
     233      444        2   0   3.24837   46.99764   43.34500
     234      444        1   0   5.27738   48.52226   42.56256
     235      444        1   0  48.47803   44.83125   42.62035
     236      444        1   0  47.29697   45.55084   41.96699
     237      444        1   0  46.78983   45.00267   40.76778
     238      444        2   0  47.22126   44.25781   40.36411
     239      444        1   0  45.63996   45.56549   40.16559
     240      444        2   0  45.24542   45.17609   39.39291
     241      444        1   0  45.08583   46.77099   40.77936
     242      444        2   0  44.34055   47.21387   40.38740
     243      444        1   0  45.65689   47.25615   41.93014
     244      444        1   0  46.74325   46.67745   42.53584
     245      444        2   0  47.10761   47.04634   43.33245
     246      444        1   0  45.00910   48.46029   42.68221
     247      444        1   0  48.53200   42.43698   45.15547
     248      444        1   0  47.37105   41.67952   45.90778
     249      444        1   0  46.91029   40.44148   45.42353
     250      444        2   0  47.30201   40.03808   44.65651
     251      444        1   0  45.83873   39.80538   46.12564
     252      444        2   0  45.55875   38.93755   45.85887
     253      444        1   0  45.18665   40.44355   47.20697
     254      444        2   0  44.44492   40.03803   47.64260
     255      444        1   0  45.66922   41.69677   47.61008
     256      444        1   0  46.75309   42.33653   46.95858
     257      444        2   0  47.04485   43.19609   47.23853
     258      444        1   0  44.98944   42.43255   48.75150
     259      444        1   0   7.81966   44.90564    1.90493
     260      444        1   0   8.43999   45.55499    3.15309
     261      444        1   0   9.63416   45.02395    3.68079
     262      444        2   0  10.03303   44.27069    3.26345
     263      444        1   0  10.25344   45.59937    4.83848
     264      444        2   0  11.07930   45.27799    5.17794
     265      444        1   0   9.55773   46.68102    5.45003
     266      444        2   0   9.88973   47.05436    6.25770
     267      444        1   0   8.42966   47.18222    4.90058
     268      444        1   0   7.82690   46.63133    3.77848
     269      444        2   0   7.01097   46.98554    3.44347
     270      444        1   0   7.71400   48.39054    5.63912
     271      444        1   0   7.83023   44.97642   48.81902
     272      444        1   0   8.56600   45.66358   47.61437
     273      444        1   0   9.84252   45.24396   47.17286
     274      444        2   0  10.31693   44.57386   47.65136
     275      444        1   0  10.39058   45.80942   46.05370
     276      444        2   0  11.22740   45.50429   45.72204
     277      444        1   0   9.74299   46.78351   45.44036
     278      444        2   0  10.12846   47.18252   44.66652
     279      444        1   0   8.49007   47.24294   45.90678
     280      444        1   0   7.89689   46.73438   46.98863
     281      444        2   0   7.07200   47.07428   47.31757
     282      444        1   0   7.80596   48.43311   45.12943
     283      444        1   0   5.39639   42.42264    1.82883
     284      444        1   0   4.66688   41.71967    2.97780
     285      444        1   0   5.06498   40.40221    3.40322
     286      444        2   0   5.74994   39.93400    2.93680
     287      444        1   0   4.45049   39.82463    4.49385
     288      444        2   0   4.75352   38.99019    4.83322
     289      444        1   0   3.43696   40.44651    5.05526
     290      444        2   0   2.96300   39.99667    5.74511
     291      444        1   0   3.01613   41.70037    4.71100
     292      444        1   0   3.67044   42.31438    3.61859
     293      444        2   0   3.38833   43.17506    3.33743
     294      444        1   0   1.85622   42.38309    5.48114
     295      444        1   0   7.89183    1.74679   45.26718
     296      444        1   0   8.65931    2.80079   46.00661
     297      444        1   0   9.95543    3.05310   45.79603
     298      444        2   0  10.40987    2.57218   45.11243
     299      444        1   0  10.67029    3.99818   46.54396
     300      444        2   0  11.58795    4.15527   46.36016
     301      444        1   0  10.01760    4.72822   47.58376
     302      444        2   0  10.49650    5.35213   48.11553
     303      444        1   0   8.64158    4.49412   47.79853
     304      444        1   0   7.99012    3.49194   47.05470
     305      444        2   0   7.08779    3.27339   47.25739
     306      444        1   0   7.88368    5.25942   48.80756
     307      444        1   0   5.41153    1.85438   42.69843
     308      444        1   0   4.73257    3.06253   42.01008
     309      444        1   0   5.24432    3.55733   40.82671
     310      444        2   0   5.97967    3.10379   40.43278
     311      444        1   0   4.72839    4.71281   40.16309
     312      444        2   0   5.13966    5.09279   39.39522
     313      444        1   0   3.53862    5.25536   40.75015
     314      444        2   0   3.06279    5.93234   40.28329
     315      444        1   0   3.05942    4.82798   41.96861
     316      444        1   0   3.65358    3.63877   42.56968
     317      444        2   0   3.27750    3.27154   43.36107
     318      444        1   0   1.84800    5.47516   42.70278
     319      444        1   0   1.85169   44.90629    8.06948
     320      444        1   0   2.91221   45.61362    8.77620
     321      444        1   0   3.36914   45.15717   10.08562
     322      444        2   0   2.93764   44.43486   10.52756
     323      444        1   0   4.46394   45.81549   10.68111
     324      444        2   0   4.78370   45.49341   11.51567
     325      444        1   0   5.08987   46.89649   10.11488
     326      444        2   0   5.80766   47.33116   10.56131
     327      444        1   0   4.65245   47.34163    8.86897
     328      444        1   0   3.52218   46.71325    8.22072
     329      444        2   0   3.19778   47.06586    7.40172
     330      444        1   0   5.27827   48.53070    8.18238
     331      444        1   0  48.55044   42.40377    5.39018
     332      444        1   0  47.43415   41.70446    4.63426
     333      444        1   0  47.08140   40.40496    5.03072
     334      444        2   0  47.59044   39.94745    5.68989
     335      444        1   0  45.98082   39.80188    4.45235
     336      444        2   0  45.66881   38.96325    4.76536
     337      444        1   0  45.31241   40.47254    3.36161
     338      444        2   0  44.58595   40.04782    2.92173
     339      444        1   0  45.73724   41.74337    2.94971
     340      444        1   0  46.82164   42.32089    3.58357
     341      444        2   0  47.14532   43.16323    3.28052
     342      444        1   0  44.99076   42.46881    1.85353
     343      444        1   0  42.48680   45.03271   48.82114
     344      444        1   0  41.77241   45.83847   47.74412
     345      444        1   0  40.40917   45.48083   47.40777
     346      444        2   0  39.96938   44.78384   47.88226
     347      444        1   0  39.77040   46.14018   46.41518
     348      444        2   0  38.88921   45.88220   46.17216
     349      444        1   0  40.39284   47.20009   45.75021
     350      444        2   0  39.91994   47.71316   45.10524
     351      444        1   0  41.78515   47.50339   46.05996
     352      444        1   0  42.41326   46.83209   47.08839
     353      444        2   0  43.29895   47.06735   47.33801
     354      444        1   0  42.50580   48.60539   45.21041
     355      444        3   0   1.43166   43.45132   45.70595
     356      444        3   0   1.43108   41.79489   44.15176
     357      444        3   0   1.39143   45.43568   43.64564
     358      444        3   0   1.40877   43.82652   42.04771
     359      444        3   0  48.93310   45.39705   43.67906
     360      444        3   0  48.91777   43.78260   42.08794
     361      444        3   0  48.94001   43.43943   45.69263
     362      444        3   0  48.94974   41.78957   44.11948
     363      444        3   0   6.78726   45.45615    1.50874
     364      444        3   0   8.41097   43.88630    1.47034
     365      444        3   0   6.80680   45.47097   49.24611
     366      444        3   0   8.42955   43.90881   49.24273
     367      444        3   0   4.83542   43.48928   49.21019
     368      444        3   0   6.44866   41.87230   49.18304
     369      444        3   0   4.80056   43.44961    1.44711
     370      444        3   0   6.42875   41.86041    1.39932
     371      444        3   0   6.81908    1.35752   45.74489
     372      444        3   0   8.47332    1.33504   44.20284
     373      444        3   0   4.82719    1.43851   43.71088
     374      444        3   0   6.46335    1.45391   42.12792
     375      444        3   0   4.77325   48.91281   43.64297
     376      444        3   0   6.35904   48.93734   42.06731
     377      444        3   0   6.71365   48.81649   45.67782
     378      444        3   0   8.35494   48.85459   44.07767
     379      444        3   0   1.44427   45.44674    7.01517
     380      444        3   0   1.40758   43.82418    8.57844
     381      444        3   0   1.45369   43.49982    4.93379
     382      444        3   0   1.45590   41.86393    6.47763
     383      444        3   0  48.99904   43.48628    4.89862
     384      444        3   0  49.00648   41.82529    6.44737
     385      444        3   0  48.92023   45.43997    6.96157
     386      444        3   0  48.88306   43.79909    8.49997
     387      444        3   0  45.55105   43.49278    1.41579
     388      444        3   0  43.92178   41.93726    1.41016
     389      444        3   0  45.52648   43.47892   49.16058
     390      444        3   0  43.92730   41.93602   49.17938
     391      444        3   0  43.54573   45.53476   49.23161
     392      444        3   0  41.95762   43.97900   49.23832
     393      444        3   0  43.57175   45.57441    1.42340
     394      444        3   0  41.88272   44.00566    1.41088
     395      444        3   0   4.81288    1.40031    6.99998
     396      444        3   0   6.48160    1.48492    8.55926
     397      444        3   0   6.77763    1.33268    4.92357
     398      444        3   0   8.46148    1.31470    6.45450
     399      444        3   0   6.69500   48.83527    5.02567
     400      444        3   0   8.31595   48.84894    6.64002
     401      444        3   0   4.75375   48.87208    7.08150
     402      444        3   0   6.31713   48.97991    8.68377
     403      444        3   0  -0.01563   46.19308   46.36105
     404      444        3   0   4.11702   46.21691    0.05711
     405      444        3   0   4.04404   50.17149   46.38035
     406      444        3   0   0.26585   46.34550    4.30204
     407      444        3   0  46.26145   46.22682    0.03302