2784
 Atoms. Timestep: 0
1 49.1274 7.31304 11.2319
1 48.2445 8.32205 10.6461
1 48.0384 9.5333 11.3293
2 48.6062 9.7385 12.228
1 47.1149 10.5003 10.8317
2 46.9778 11.4082 11.3484
1 46.375 10.2014 9.65491
2 45.7573 10.9787 9.29554
1 46.5376 8.98326 8.99002
1 47.5038 8.09221 9.47721
2 47.6667 7.11984 8.96515
1 45.6723 8.62631 7.87137
1 48.9842 51.961 12.8174
1 48.056 50.8573 13.1078
1 47.3977 50.7866 14.3573
2 47.6593 51.5091 15.1707
1 46.3953 49.8159 14.5799
2 45.837 49.7682 15.529
1 46.017 48.9767 13.5454
2 45.1493 48.353 13.6707
1 46.5812 49.1121 12.2951
1 47.6457 49.9739 12.0976
2 48.1171 50.0392 11.0982
1 45.9323 48.4317 11.1803
1 4.55956 4.56159 12.932
1 5.82305 3.91534 13.3643
1 6.07286 52.2061 14.7251
2 5.44718 4.13251 15.4843
1 7.20821 51.4958 15.0983
2 7.45082 51.4037 16.1559
1 8.01269 50.8602 14.15
2 8.88067 50.3784 14.5005
1 7.72844 50.9695 12.8063
1 6.66033 51.7601 12.4152
2 6.46864 51.8207 11.3609
1 8.5228 50.3248 11.7636
1 52.2605 7.50078 11.8915
1 4.64985 8.67583 11.7091
1 4.65644 9.735 12.6218
2 3.97361 9.74524 13.472
1 5.62692 10.7336 12.5898
2 5.7073 11.4808 13.3381
1 6.59896 10.6968 11.5621
2 7.3331 11.489 11.527
1 6.58133 9.69533 10.5735
1 5.58426 8.69434 10.658
2 5.6017 7.91795 9.9077
1 7.55825 9.72368 9.43103
1 43.1625 8.31092 52.1791
1 42.676 8.20088 50.7804
1 41.3196 8.53363 50.4696
2 40.6332 8.87246 51.2658
1 40.8811 8.40132 49.1556
2 39.8993 8.77477 48.857
1 41.7445 7.9036 48.1589
2 41.3551 7.80333 47.1658
1 43.0817 7.63799 48.4308
1 43.5485 7.78992 49.7502
2 44.6041 7.58318 49.9886
1 44.0519 7.24546 47.3515
1 42.4113 6.31354 7.18253
1 41.805 5.14304 7.88696
1 40.4385 5.16167 8.25073
2 39.7911 5.96647 8.00612
1 39.8449 3.98827 8.82368
2 38.7902 4.01509 9.03283
1 40.5483 51.2829 8.99758
2 40.0476 50.4409 9.37648
1 41.9296 51.3163 8.74008
1 42.5546 3.96943 8.13205
2 43.5822 3.98244 7.86727
1 42.777 50.0996 8.90974
1 45.1021 10.3808 5.35096
1 45.8134 11.6405 5.03095
1 45.3487 12.8416 5.57655
2 44.4703 12.9091 6.18547
1 45.9776 14.0358 5.20225
2 45.7136 14.9787 5.57295
1 47.1133 14.0477 4.34549
2 47.5787 14.9828 4.11012
1 47.5388 12.7797 52.5639
1 46.9196 11.6264 4.17161
2 47.2432 10.6198 52.4912
1 48.7456 12.7274 51.7103
1 44.0359 46.73 6.81401
1 43.8145 45.9329 5.62637
1 42.899 44.8677 5.64483
2 42.4335 44.5217 6.55534
1 42.6053 44.1588 4.48627
2 41.8657 43.3484 4.48965
1 43.1605 44.4748 52.0352
2 42.833 43.919 51.1871
1 44.1164 45.5191 51.9833
1 44.4465 46.2478 4.41872
2 45.1088 47.0561 4.39542
1 44.8046 45.8592 50.7411
1 45.8221 45.8879 9.06542
1 46.5571 44.6019 8.83511
1 45.9315 43.3764 9.10252
2 44.9295 43.3388 9.463
1 46.578 42.1616 8.87874
2 46.0755 41.2128 9.0213
1 47.8944 42.1494 8.38501
2 48.4273 41.1861 8.30137
1 48.5054 43.3642 8.05009
1 47.8503 44.6057 8.31652
2 48.3716 45.5542 8.01134
1 49.8146 43.3541 7.36764
1 50.2462 11.98 47.7916
1 49.629 11.5716 46.5203
1 49.5565 12.4389 45.4271
2 50.021 13.3889 45.461
1 48.8253 12.084 44.3081
2 48.6503 12.8022 43.4824
1 48.1339 10.8833 44.2632
2 47.5914 10.6345 43.3637
1 48.1679 10.0005 45.3402
1 48.9548 10.3274 46.4801
2 48.9456 9.6836 47.3609
1 47.3028 8.77516 45.3722
1 4.51707 13.0067 51.8688
1 5.5589 13.4621 4.02323
1 5.8561 14.7869 4.30571
2 5.27945 15.5859 3.80803
1 6.76456 15.1472 5.30392
2 6.96636 16.1899 5.46213
1 7.45636 14.1655 6.02981
2 8.26074 14.4559 6.68169
1 7.24599 12.819 5.69545
1 6.21475 12.4976 4.79688
2 5.97779 11.4604 4.62896
1 8.01667 11.7493 6.38945
1 10.451 8.08353 9.07972
1 11.1016 7.05539 9.87863
1 11.9499 7.39795 10.9337
2 12.1786 8.44814 11.0893
1 12.5457 6.43362 11.7328
2 13.2612 6.73298 12.4742
1 12.2665 5.08472 11.5156
2 12.6945 4.34012 12.1251
1 11.3915 4.69247 10.4973
1 10.8574 5.6882 9.66332
2 10.2624 5.38497 8.84575
1 10.9308 51.7412 10.2804
3 49.4394 6.29917 10.5439
3 49.6057 7.50769 12.4217
3 50.0278 51.83 12.0538
3 48.8416 4.60858 13.3899
3 4.38009 4.92143 11.7193
3 52.1766 4.79222 13.8113
3 3.92579 6.42867 11.1991
3 51.297 7.5507 12.7337
3 44.3945 8.17096 52.4637
3 42.329 8.5549 4.37162
3 43.286 6.15627 6.27656
3 42.094 7.48403 7.55801
3 46.0316 7.70785 7.08295
3 44.5495 9.23867 7.6794
3 45.2815 9.2737 4.67725
3 44.3222 10.3954 6.36482
3 44.7555 47.73 6.77425
3 43.5343 46.3585 7.94211
3 46.4222 47.0351 8.96757
3 44.5601 45.8461 9.20368
3 46.5797 48.2811 10.1081
3 44.6658 48.2874 11.1971
3 44.0318 50.2441 9.11474
3 42.2669 48.9409 8.82428
3 50.7128 11.0994 48.6112
3 50.1448 13.1721 48.1583
3 49.1542 11.6169 51.3118
3 49.4138 13.7577 51.5051
3 3.97918 11.8727 51.9146
3 4.11562 13.8477 51.0033
3 3.91736 11.3495 49.0912
3 4.28194 13.5646 49.3009
3 8.04419 10.5781 5.89281
3 8.71414 12.004 7.44145
3 7.19752 9.26541 8.3391
3 8.75748 10.1194 9.57695
3 10.0899 7.79108 7.91865
3 10.2456 9.23447 9.53904
3 9.16676 9.67867 5.08923
3 11.032 9.94039 6.17534
3 47.4337 5.38444 44.7508
3 45.5688 5.37493 43.6201
3 45.1452 4.89643 46.8227
3 44.3846 5.17354 44.7409
3 44.9286 6.36107 47.5876
3 43.9524 7.78346 46.2057
3 47.0965 8.19765 46.4643
3 46.7252 8.35595 44.32
3 50.9919 3.79517 9.21231
3 45.8765 5.72305 4.3937
3 46.8087 50.2348 7.40482
3 50.963 9.0984 51.3887
3 7.66403 7.00886 5.95203
3 48.3066 5.87686 47.8715
4 50.9345 4.88955 10.9488
4 50.3915 5.94143 13.716
4 44.8888 7.23101 5.43356
4 42.7305 9.05624 6.40584
4 45.5332 48.8971 8.39674
4 43.3175 47.4574 9.83841
4 51.0228 11.0992 50.6787
4 50.8049 14.0278 49.9124
4 8.4918 8.70883 6.85694
4 10.2244 10.6645 8.01119
4 46.7946 6.16462 46.5501
4 44.9339 7.23082 44.4632
1 5.96079 47.7086 43.8629
1 6.87934 46.6767 44.4321
1 7.13603 45.4861 43.7833
2 6.7041 45.2644 42.8136
1 7.92343 44.5056 44.3708
2 7.97258 43.5076 43.9492
1 8.54628 44.7673 45.5876
2 9.09441 44.0203 46.0925
1 8.4541 46.0266 46.1749
1 7.53933 46.9462 45.636
2 7.44503 47.9319 46.0626
1 9.2446 46.3854 47.3899
1 6.19275 51.6025 42.5196
1 7.34541 4.12675 42.3768
1 8.07848 4.17727 41.21
2 7.8134 51.979 40.3875
1 9.2179 5.01327 41.1264
2 9.75779 5.1266 40.1848
1 9.54853 5.88648 42.1902
2 10.4096 6.56001 42.0892
1 8.84594 5.80305 43.421
1 7.76572 4.875 43.5028
2 7.23032 4.73891 44.4519
1 9.2437 6.59376 44.594
1 50.6418 50.6638 42.3125
1 49.319 51.2814 41.9671
1 48.7471 51.1332 40.6804
2 49.3007 50.6308 39.8936
1 47.5331 51.8032 40.4082
2 47.1295 51.7584 39.3971
1 46.9039 4.07793 41.3504
2 46.0061 4.6142 41.0932
1 47.4146 4.18213 42.676
1 48.612 52.0352 42.9622
2 49.0556 52.1661 43.9433
1 46.7896 5.04315 43.722
1 51.3493 47.7646 43.6342
1 50.5091 46.6082 44.0886
1 50.6606 45.3188 43.5031
2 51.3532 45.1303 42.7158
1 49.9466 44.2424 44.0334
2 49.9843 43.2468 43.5765
1 49.0057 44.4312 45.0646
2 48.3815 43.5769 45.3598
1 48.8792 45.7041 45.6275
1 49.619 46.7846 45.1496
2 49.5535 47.731 45.6872
1 47.862 45.9452 46.6716
1 11.5561 46.8642 51.8677
1 12.0388 46.7329 4.44742
1 13.0842 45.8148 4.74812
2 13.4586 45.2486 3.92649
1 13.4748 45.5987 6.07003
2 14.126 44.7909 6.28629
1 12.9308 46.3403 7.08689
2 13.2979 46.1646 8.07406
1 11.9573 47.3186 6.84326
1 11.4812 47.454 5.51416
2 10.7309 48.1835 5.33823
1 11.3745 48.0767 7.9525
1 11.8831 49.306 48.472
1 12.323 50.4873 47.6978
1 13.3007 50.3285 46.7001
2 13.8211 49.395 46.5563
1 13.6362 51.3971 45.8613
2 14.4845 51.2871 45.1762
1 13.0324 4.13874 45.9849
2 13.3391 4.95602 45.3357
1 12.083 4.36452 46.9843
1 11.7289 51.7727 47.8577
2 10.9961 51.9234 48.6007
1 11.3578 5.67405 47.0416
1 9.24446 45.2315 50.45
1 8.48569 44.0636 50.9709
1 8.66667 42.7942 50.3614
2 9.34344 42.7342 49.5245
1 7.85908 41.7154 50.6792
2 8.06671 40.7149 50.2456
1 6.94867 41.8648 51.719
2 6.43886 40.9494 52.0646
1 6.68988 43.1125 52.3064
1 7.48639 44.2112 51.9409
2 7.21224 45.1957 52.329
1 5.60278 43.2769 4.55014
1 10.8363 8.88047 48.9366
1 11.3472 9.46667 50.1901
1 12.6399 9.99019 50.222
2 13.2231 10.0948 49.321
1 13.2156 10.4392 51.4324
2 14.1811 10.8704 51.5101
1 12.4597 10.486 3.83109
2 12.8766 10.9071 4.72224
1 11.2034 9.90986 3.81997
1 10.5927 9.44706 51.3854
2 9.59004 9.02087 51.4318
1 10.4389 9.84607 5.06774
1 8.3828 9.90795 46.8321
1 7.5782 11.1685 46.8858
1 7.89689 12.2903 46.0935
2 8.744 12.2793 45.4254
1 7.17016 13.4915 46.227
2 7.48362 14.352 45.6529
1 6.06791 13.5293 47.0962
2 5.54259 14.5024 47.1778
1 5.72092 12.3868 47.8561
1 6.49412 11.2396 47.7775
2 6.26003 10.3677 48.3567
1 4.5773 12.4316 48.7823
1 4.92957 44.3199 8.63267
1 5.73544 44.6732 9.81172
1 6.00271 43.7908 10.8328
2 5.43946 42.8528 10.8927
1 6.97947 44.0803 11.7736
2 7.15135 43.3586 12.5877
1 7.64456 45.3063 11.7852
2 8.45931 45.4517 12.4953
1 7.36816 46.2415 10.7773
1 6.37799 45.9154 9.82395
2 6.22338 46.614 9.02121
1 8.24349 47.4383 10.5103
1 50.7232 43.2382 4.36004
1 50.0596 42.9522 51.8066
1 50.3752 41.8125 51.0509
2 51.0436 41.0563 51.4927
1 49.8043 41.6191 49.7731
2 50.0855 40.7185 49.1568
1 48.8654 42.5217 49.2786
2 48.4815 42.3957 48.2964
1 48.5355 43.6447 50.0454
1 49.0995 43.8607 51.3229
2 48.7761 44.7313 51.8758
1 47.5156 44.5958 49.5717
1 44.4299 48.1174 47.293
1 43.7988 49.2032 46.5434
1 42.8288 48.8891 45.5562
2 42.5355 47.8452 45.4202
1 42.3127 49.9067 44.7498
2 41.5247 49.6382 44.0566
1 42.7832 51.257 44.8432
2 42.4242 52.0208 44.1013
1 43.7617 51.5897 45.8485
1 44.2342 50.5324 46.6853
2 44.9626 50.8131 47.4707
1 44.4452 4.45692 45.826
3 5.77821 48.77 44.5382
3 5.34114 47.5361 42.768
3 5.19264 51.8452 43.2177
3 6.30985 50.4431 42.0128
3 50.9044 50.3536 43.5039
3 51.4925 50.3782 41.424
3 51.2027 48.9269 44.1735
3 52.1819 47.596 42.6679
3 10.4407 47.4179 51.6844
3 12.2595 46.4278 50.9009
3 11.1751 49.5073 49.4939
3 11.9788 48.1389 47.9691
3 8.97912 47.4584 48.0358
3 10.0717 45.5165 47.8928
3 9.18895 46.4018 50.9956
3 10.1048 45.021 49.5263
3 9.58895 8.67033 48.8165
3 11.6079 8.74997 47.9335
3 8.33177 9.10834 47.8053
3 9.17517 9.72927 45.8441
3 8.40948 6.79695 45.5574
3 10.4737 6.8767 44.7807
3 10.5643 5.91774 47.9862
3 11.4064 6.45613 46.0583
3 4.19776 45.1915 8.07073
3 5.16017 43.1844 8.06489
3 5.37774 44.388 5.09048
3 4.84859 42.2966 4.81861
3 50.5461 44.328 5.00546
3 51.6156 42.4398 4.73296
3 50.2276 44.4183 6.75207
3 50.5592 42.3317 7.47105
3 47.3617 45.7447 50.1102
3 46.8688 44.3453 48.4844
3 47.84 47.0316 47.3505
3 47.0485 44.9906 46.9771
3 44.8634 48.3354 48.4841
3 44.6711 47.0281 46.706
3 45.9834 46.3578 50.7627
3 44.2671 45.5603 49.6254
3 8.46957 50.7622 10.5611
3 9.27257 49.3189 12.0386
3 9.83118 51.5151 9.68656
3 11.6005 50.7926 10.6778
3 10.7719 49.146 7.71958
3 11.4518 47.654 9.15004
3 8.15832 48.0549 9.41437
3 9.14747 47.8014 11.3436
3 4.40205 51.1138 46.225
3 8.20925 49.6642 50.1161
3 7.44971 5.81658 48.3935
3 52.1082 47.0595 5.38149
3 47.7297 49.101 49.7845
3 8.02933 50.2004 7.04942
4 4.36282 50.296 44.3318
4 4.70712 49.2109 41.6151
4 9.63899 48.2151 49.8888
4 11.7952 46.2698 48.8902
4 8.8811 7.11036 47.5619
4 10.8939 8.54309 45.9744
4 52.1582 45.0811 6.1189
4 3.96334 42.1061 6.6883
4 46.6685 47.4682 49.0255
4 45.102 45.3228 47.7557
4 9.11648 49.7819 8.81998
4 11.0431 48.7989 10.8846
2 7.62262 49.8985 49.3629
2 8.0248 50.084 50.9624
2 46.2432 5.88252 52.2925
2 46.0427 4.84225 4.83712
2 48.1344 5.2024 48.5445
2 49.1999 6.13763 47.6757
2 51.7413 8.58301 51.548
2 50.1291 8.70157 51.6281
2 7.15218 50.495 7.22848
2 8.21254 49.8812 6.16091
2 50.5166 4.06831 8.39834
2 51.4643 51.4643 9.14968
2 6.98777 6.49686 6.44403
2 7.82804 6.84471 5.00958
2 52.2337 47.1599 4.43469
2 51.7953 47.8469 5.87941
2 47.4389 49.9007 6.7806
2 46.653 51.1867 7.42273
2 47.3165 49.9784 49.8977
2 48.6238 48.971 50.1492
2 7.56364 4.87294 48.4197
2 6.57375 6.19764 48.5624
2 5.19454 51.5557 46.5252
2 52.2418 50.821 46.857
1 4.75879 19.1041 23.1772
1 52.1178 18.3358 23.6987
1 51.9834 16.9785 23.4402
2 4.2733 16.4838 22.9024
1 50.8355 16.3265 23.8286
2 50.777 15.2675 23.5954
1 49.7855 17.0367 24.4384
2 48.8559 16.5253 24.5891
1 49.8676 18.4194 24.6293
1 51.0839 19.0829 24.2733
2 51.1573 20.1895 24.3443
1 48.7241 19.2178 25.1061
1 5.30965 21.8534 20.2223
1 4.54671 22.6011 19.1653
1 4.76379 22.3244 17.8404
2 5.37458 21.5202 17.4623
1 4.20818 23.1427 16.8456
2 4.44092 23.0193 15.8184
1 51.8944 24.2364 17.2356
2 51.5496 24.9195 16.4598
1 51.6614 24.4855 18.5663
1 52.2396 23.674 19.5241
2 52.0942 23.9338 20.553
1 50.8046 25.6608 18.9564
1 9.21722 21.2486 22.1749
1 10.6175 21.6348 22.3438
1 11.6822 20.7892 21.9227
2 11.5558 19.8244 21.4503
1 12.9823 21.1038 22.2941
2 13.7975 20.414 21.9423
1 13.2848 22.1889 23.062
2 14.3066 22.3555 23.27
1 12.272 23.0689 23.4569
1 10.9232 22.7799 23.1266
2 10.0974 23.4308 23.4056
1 12.5473 24.2492 24.2972
1 7.60672 19.3774 24.2296
1 8.2393 18.6531 25.3718
1 8.90399 17.4094 25.2033
2 8.95134 16.9084 24.2342
1 9.45002 16.7758 26.2919
2 10.0111 15.8686 26.2303
1 9.42795 17.3576 27.5869
2 10.0338 16.9015 28.3666
1 8.79298 18.6111 27.7685
1 8.19979 19.2228 26.6655
2 7.6715 20.1544 26.7904
1 8.86353 19.2302 29.1161
1 44.9637 21.861 27.3047
1 43.9592 22.5152 28.074
1 42.6825 21.9631 28.1499
2 42.4455 21.0386 27.6222
1 41.5814 22.6949 28.6404
2 40.5675 22.2745 28.6725
1 41.8041 23.9441 29.2319
2 40.9638 24.5186 29.6348
1 43.0719 24.5191 29.2651
1 44.1468 23.8035 28.6374
2 45.1137 24.2841 28.5464
1 43.3023 25.8854 29.7915
1 46.3613 21.9818 23.2539
1 46.2205 22.6063 21.9416
1 45.4207 22.0788 20.9253
2 44.8674 21.1916 21.1456
1 45.4325 22.646 19.6403
2 44.703 22.2902 18.9434
1 46.2227 23.7517 19.3362
2 46.0839 24.2287 18.3646
1 47.0741 24.2645 20.3267
1 47.0857 23.6815 21.6096
2 47.7236 24.0575 22.4242
1 47.8385 25.5051 20.0961
1 47.2476 19.8 27.9323
1 47.4803 19.1711 29.2482
1 47.1562 17.8202 29.4681
2 46.9451 17.1012 28.6807
1 47.2384 17.2799 30.7711
2 46.927 16.2507 30.9855
1 47.6272 18.0678 31.8595
2 47.583 17.6623 32.8876
1 47.9327 19.4259 31.6233
1 47.91 19.9621 30.3302
2 48.1111 21.0196 30.1814
1 48.3033 20.3085 32.7472
1 47.9854 29.8581 20.1695
1 47.4262 31.2219 20.5171
1 46.9926 32.0326 19.4396
2 46.999 31.6187 18.4332
1 46.4448 33.3168 19.6612
2 46.1106 33.9453 18.8785
1 46.4098 33.7868 20.9534
2 46.0728 34.8321 21.0817
1 46.8573 32.9994 22.0466
1 47.3394 31.7073 21.8378
2 47.757 31.1259 22.6431
1 46.9027 33.6034 23.3759
1 51.72 28.7112 19.2669
1 4.49482 29.3559 18.9073
1 5.0598 29.217 17.6415
2 4.52145 28.627 16.9251
1 6.22161 29.9211 17.3104
2 6.57936 29.9395 16.2895
1 6.85137 30.697 18.2435
2 7.78552 31.1791 18.0118
1 6.28718 30.8735 19.5279
1 5.12467 30.1985 19.8343
2 4.69834 30.3283 20.8078
1 6.885 31.8156 20.5202
1 46.7805 23.5301 35.0549
1 45.7526 24.5618 35.1354
1 44.8578 24.6225 36.2095
2 45.0467 23.9988 37.1018
1 43.799 25.5326 36.1918
2 43.148 25.6161 37.0531
1 43.5544 26.3192 35.0668
2 42.6585 26.9579 35.0599
1 44.4097 26.2076 33.9516
1 45.5175 25.3545 34.0248
2 46.1559 25.2437 33.1341
1 44.1135 27.0118 32.7213
1 50.7269 20.3057 34.7719
1 51.9631 19.4777 34.7612
1 52.124 18.415 35.7043
2 51.3461 18.1727 36.4268
1 4.77432 17.6224 35.6347
2 4.89073 16.7937 36.3185
1 5.81583 17.9071 34.7656
2 6.70158 17.2728 34.709
1 5.67424 18.9615 33.8384
1 4.50389 19.7232 33.8107
2 4.41527 20.5819 33.1432
1 6.83165 19.329 32.9692
1 11.0334 21.1591 30.4806
1 12.2529 21.7085 29.8588
1 13.5247 21.0372 30.0616
2 13.6045 20.1485 30.6237
1 14.6273 21.5746 29.4114
2 15.5577 21.0245 29.4081
1 14.5732 22.7655 28.7056
2 15.4357 23.1487 28.2213
1 13.3691 23.4215 28.5249
1 12.2178 22.8729 29.0863
2 11.2451 23.3148 28.9065
1 13.2936 24.5531 27.6016
3 5.1473 20.1973 23.7039
3 5.29759 18.6979 22.1091
3 4.98926 22.0782 21.4467
3 6.32515 21.0835 19.9761
3 8.28851 22.082 22.4126
3 8.93759 20.0519 21.9546
3 6.71843 20.264 24.4443
3 7.97086 19.1155 23.036
3 46.1998 22.1801 27.4372
3 44.6368 21.0231 26.4003
3 46.4684 22.7108 24.2896
3 46.2334 20.7183 23.3652
3 48.8039 20.5029 25.15
3 47.6151 18.6659 25.4597
3 47.352 21.0574 27.8189
3 46.8466 19.0401 26.9594
3 48.1071 29.016 21.0887
3 48.3873 29.6049 19.0126
3 51.371 28.6338 20.483
3 50.9574 28.2459 18.3711
3 50.3304 25.7669 20.1417
3 50.5914 26.578 18.0952
3 48.7966 25.7869 20.886
3 47.6748 26.223 19.0713
3 47.3735 23.3768 33.9587
3 47.1711 22.9185 36.0887
3 49.2469 21.1328 32.5829
3 47.7481 20.1938 33.8722
3 50.5693 21.1345 33.8353
3 50.0194 20.3691 35.8428
3 50.3857 23.4052 35.5818
3 49.8735 21.6259 36.8061
3 6.6321 19.9279 31.8788
3 8.01256 18.9813 33.2698
3 8.61214 20.4706 29.2605
3 9.24681 18.5484 30.1038
3 9.89212 21.4676 30.0065
3 11.1235 20.3449 31.4753
3 9.08779 22.107 32.7804
3 10.67 20.6365 33.1134
3 45.3225 29.7743 31.5566
3 43.2946 29.5513 32.445
3 43.8605 29.281 28.6017
3 42.0981 30.0289 29.7277
3 44.4981 26.263 30.1529
3 42.3131 26.6807 29.9091
3 44.8188 26.8995 31.66
3 43.1391 27.8326 32.7411
3 5.80542 23.6325 23.9196
3 48.8196 23.7491 26.1617
3 50.0088 27.6725 23.2474
3 50.0832 24.4439 32.6035
3 6.79305 22.8876 30.8059
3 46.6753 28.4324 28.9082
4 6.28125 21.7799 23.016
4 7.03633 19.4874 21.1848
4 47.6074 22.0399 25.8956
4 45.7827 19.7201 25.1858
4 49.6643 27.6659 21.1466
4 48.8559 27.754 18.1955
4 49.3407 22.8235 33.8098
4 48.0722 21.0813 35.7823
4 8.093 21.3241 31.1016
4 9.69501 18.9702 32.1056
4 44.9405 28.3333 30.0173
4 42.0617 28.5131 31.0306
1 4.11047 35.1092 34.6228
1 5.42814 35.751 34.4949
1 5.81678 36.7265 35.4123
2 5.11703 37.0821 36.1556
1 7.11724 37.2879 35.3945
2 7.32779 38.1408 36.0489
1 8.0712 36.8184 34.454
2 9.07552 37.2192 34.4955
1 7.71205 35.8003 33.5265
1 6.36974 35.2988 33.5486
2 6.08883 34.4612 32.9417
1 8.71157 35.1853 32.658
1 51.3553 32.6983 36.7119
1 52.0594 32.007 37.8071
1 52.1258 32.5277 39.0787
2 51.5114 33.3536 39.3849
1 4.41396 31.9332 40.0746
2 4.47655 32.4123 41.0826
1 5.19053 30.8477 39.7942
2 5.89268 30.4683 40.5632
1 5.08429 30.2504 38.5254
1 4.24262 30.8179 37.5636
2 4.22038 30.3706 36.5929
1 5.98633 29.1151 38.1528
1 47.9437 32.7729 34.7265
1 46.5738 32.1924 34.7291
1 45.7648 32.2589 35.8901
2 46.1015 32.8 36.7798
1 44.5196 31.5767 35.8888
2 43.8886 31.6352 36.7722
1 44.095 30.8581 34.7825
2 43.2068 30.269 34.8781
1 44.8794 30.8229 33.6204
1 46.0803 31.5328 33.6047
2 46.714 31.545 32.6992
1 44.4716 30.0095 32.4892
1 49.1924 35.3189 32.8665
1 48.6376 36.1577 31.7366
1 48.5802 37.5469 31.8647
2 48.8838 38.0543 32.7668
1 48.2124 38.3282 30.7498
2 48.1599 39.435 30.8477
1 47.973 37.7351 29.5138
2 47.5846 38.3418 28.7116
1 48.1409 36.347 29.3441
1 48.3928 35.57 30.4883
2 48.4582 34.508 30.3582
1 47.995 35.675 28.031
1 12.2881 32.3471 30.1497
1 13.31 31.4358 29.5594
1 14.6905 31.5542 29.9269
2 15.0358 32.3578 30.5868
1 15.6444 30.6756 29.4341
2 16.6809 30.8022 29.8102
1 15.2645 29.6603 28.5608
2 16.0427 29.0118 28.1759
1 13.9281 29.549 28.1028
1 12.9546 30.4564 28.577
2 11.9265 30.3296 28.3151
1 13.5795 28.4056 27.1689
1 11.2311 32.0675 33.1184
1 11.5709 31.1445 34.2614
1 12.8877 30.8638 34.5944
2 13.6886 31.3371 34.0396
1 13.1937 29.9608 35.6139
2 14.1994 29.7611 35.8537
1 12.168 29.2507 36.3187
2 12.4949 28.4511 37.0016
1 10.8211 29.513 35.992
1 10.5483 30.5126 35.0179
2 9.52004 30.7365 34.7851
1 9.70738 28.7272 36.5935
1 10.6782 34.824 28.7974
1 10.7829 35.3274 27.3896
1 11.489 36.5268 27.1386
2 12.0557 37.002 27.9243
1 11.5262 37.0051 25.8251
2 11.9913 38.0014 25.7615
1 10.8484 36.3597 24.7632
2 10.9022 36.8026 23.7897
1 10.0823 35.2386 25.0307
1 10.0669 34.7397 26.3315
2 9.48746 33.8355 26.5541
1 9.2061 34.6395 23.9736
1 9.30848 25.4982 36.5312
1 10.2482 24.4723 35.9838
1 11.5782 24.3677 36.4565
2 11.9344 25.0052 37.214
1 12.4023 23.3383 35.9777
2 13.4117 23.2856 36.3461
1 11.9588 22.501 34.9422
2 12.6297 21.801 34.5162
1 10.6408 22.6006 34.4728
1 9.76234 23.5413 35.0604
2 8.75202 23.593 34.7304
1 10.1119 21.7361 33.425
1 5.67627 25.7817 38.1734
1 4.70044 24.7359 38.4559
1 4.8118 23.9646 39.619
2 5.59885 24.1487 40.3726
1 3.97029 22.8905 39.8548
2 4.0012 22.3385 40.7804
1 51.5609 22.4808 38.8775
2 50.9085 21.6181 39.0678
1 51.4504 23.1811 37.6816
1 52.2586 24.3453 37.4982
2 52.2101 24.8167 36.5387
1 50.4887 22.734 36.6642
1 9.70904 32.096 22.1278
1 10.8205 31.1097 22.066
1 11.5783 30.9821 20.8541
2 11.3776 31.6315 20.0069
1 12.5401 30.0095 20.7056
2 13.1032 29.9744 19.8203
1 12.7725 29.1115 21.7654
2 13.5633 28.3916 21.6761
1 12.0771 29.2113 22.9917
1 11.1007 30.2109 23.1228
2 10.5524 30.2397 24.0637
1 12.3871 28.2824 24.124
1 5.51944 35.145 22.218
1 4.15604 35.7284 22.1015
1 3.78774 36.4215 20.9394
2 4.5463 36.6777 20.218
1 50.966 36.8632 20.7595
2 50.7324 37.4565 19.8958
1 50.0121 36.5587 21.7681
2 48.9827 36.8854 21.6033
1 50.3638 35.898 22.906
1 51.7193 35.5464 23.1073
2 51.9622 35.0403 24.0482
1 49.3306 35.572 23.9557
1 45.1227 33.4006 25.9933
1 43.8504 32.7521 26.336
1 42.5946 33.354 26.1096
2 42.5559 34.3086 25.5684
1 41.412 32.8959 26.6557
2 40.473 33.3873 26.5704
1 41.4855 31.8003 27.5044
2 40.5742 31.4164 27.9638
1 42.7194 31.1357 27.7037
1 43.8834 31.5781 27.0773
2 44.8244 31.1014 27.3178
1 42.8195 30.0298 28.6693
3 52.1653 34.3764 33.6964
3 51.9016 35.2383 35.7115
3 50.9364 32.0694 35.7014
3 51.3433 33.9728 36.6811
3 48.6255 32.7982 33.6411
3 48.3983 33.3779 35.7404
3 49.2142 34.0322 32.7781
3 49.5679 35.8795 33.9316
3 11.0884 32.4068 29.6994
3 12.6062 33.0372 31.197
3 10.0736 31.9908 32.5719
3 12.0825 32.9729 32.7343
3 8.34928 34.5266 31.6225
3 9.94707 35.2786 32.9551
3 10.1872 33.6398 28.9994
3 11.1704 35.5088 29.7764
3 8.11766 25.5601 36.0727
3 9.67858 26.2816 37.4594
3 5.46113 26.6349 37.2882
3 6.82269 25.7489 38.7746
3 5.5875 28.2454 37.2972
3 7.12576 29.0055 38.6743
3 8.50559 28.91 36.1934
3 9.9203 27.8298 37.4519
3 9.00384 32.1783 23.1973
3 9.31264 32.7103 21.0644
3 8.69279 33.516 24.1424
3 9.04367 35.2519 22.8894
3 5.86908 34.5958 23.2775
3 6.20997 35.0026 21.1722
3 6.38522 31.8354 21.6896
3 7.83591 32.6159 20.25
3 49.5697 34.7313 24.9081
3 48.0976 35.9223 23.7557
3 47.7137 34.4282 27.9084
3 47.9797 36.4054 26.9755
3 46.1961 32.6981 25.8404
3 45.1765 34.675 25.9003
3 47.1465 32.8582 24.3912
3 46.8913 34.8777 23.4932
3 11.646 25.1206 24.4821
3 13.6694 24.3372 24.9319
3 12.3546 25.4094 27.7575
3 14.0195 24.56 26.5375
3 12.3924 28.2932 26.7612
3 14.4285 27.4496 26.9913
3 11.7804 28.348 25.2574
3 13.2067 27.3313 23.8954
3 51.553 31.493 32.5859
3 7.70022 31.8791 30.2831
3 6.36951 27.587 34.1674
3 6.06093 31.8868 24.9135
3 49.5302 31.9556 26.6662
3 9.48626 26.2141 26.5768
4 50.6577 32.9225 33.8408
4 49.7542 34.9915 35.7263
4 9.37446 32.9577 30.8332
4 11.559 34.8116 31.743
4 7.05783 27.4017 36.1262
4 8.26254 27.2617 38.7588
4 6.91357 32.8423 23.3318
4 8.20213 34.5307 21.1114
4 48.1876 33.528 26.0818
4 46.7478 35.961 25.3422
4 11.5473 26.441 26.1162
4 14.3322 26.2601 25.3139
2 6.83066 32.0624 30.5915
2 7.81464 31.1534 29.6653
2 48.9297 24.4164 25.4917
2 49.3432 23.7688 26.9654
2 47.3698 27.775 29.0288
2 46.9049 29.2758 28.4454
2 50.8866 24.3732 32.1417
2 49.5242 25.1645 32.3042
2 8.93992 25.8144 25.8731
2 9.1696 26.2458 27.5081
2 6.47442 24.3279 23.8664
2 5.12784 23.6826 24.6074
2 6.49341 23.4763 31.5458
2 6.58076 23.1721 29.902
2 6.51426 31.0885 25.2233
2 5.22161 32.1742 25.3408
2 49.2571 27.3325 23.8104
2 50.7437 28.15 23.5733
2 50.2412 31.6077 26.103
2 49.5087 31.7242 27.6072
2 7.09382 27.5765 33.5284
2 5.47008 27.8011 33.9034
2 51.844 31.7991 31.7271
2 51.7119 30.5727 32.8506
1 36.3022 49.2977 26.6126
1 36.2398 47.9309 27.21
1 37.4235 47.2403 27.5404
2 38.4151 47.6809 27.3991
1 37.3702 45.896 27.9528
2 38.2756 45.368 28.1513
1 36.1198 45.2337 28.1373
2 36.0839 44.1571 28.4554
1 34.9254 45.9377 27.8519
1 35.0364 47.2689 27.3533
2 34.0927 47.7713 27.1085
1 33.6307 45.2519 27.9233
1 35.6188 51.0184 22.9458
1 35.117 50.6114 21.5957
1 35.9836 50.4465 20.5113
2 37.0962 50.6251 20.6028
1 35.4598 49.961 19.2714
2 36.1586 49.844 18.429
1 34.0849 49.7535 19.1122
2 33.7163 49.5066 18.1427
1 33.2273 49.9294 20.2199
1 33.7665 50.3079 21.4686
2 33.1489 50.3166 22.3522
1 31.786 49.6012 20.1295
1 36.6951 5.37603 24.1617
1 36.7288 6.73111 23.5393
1 37.9468 7.28593 23.1195
2 38.8557 6.72001 23.21
1 37.9841 8.5928 22.6102
2 38.9505 9.00587 22.2434
1 36.8197 9.33826 22.4973
2 36.8971 10.3221 22.0602
1 35.5885 8.78704 22.8758
1 35.5618 7.47598 23.3551
2 34.6338 7.05264 23.6368
1 34.3702 9.64114 22.9257
1 37.5533 4.71529 27.2078
1 38.0474 5.74668 28.174
1 39.4531 5.98272 28.2997
2 40.1703 5.42439 27.6839
1 39.9243 6.89097 29.2547
2 40.9782 7.03339 29.3418
1 39.0121 7.52169 30.1196
2 39.3891 8.15233 30.9418
1 37.6346 7.29981 29.9809
1 37.1666 6.44222 28.999
2 36.1207 6.22556 28.9254
1 36.6654 7.88076 30.9056
1 29.1935 43.3604 29.5862
1 28.0495 42.8842 30.3825
1 27.6873 41.5186 30.3488
2 28.2939 40.7997 29.7915
1 26.5232 41.0518 30.9611
2 26.2787 40.0123 30.8796
1 25.715 41.9493 31.6626
2 24.7841 41.5534 32.0273
1 26.1038 43.2993 31.7582
1 27.2429 43.7726 31.1039
2 27.4302 44.8339 31.071
1 25.188 44.2312 32.4698
1 30.5438 43.9182 25.6093
1 30.3613 43.9204 24.1482
1 30.6297 42.7582 23.4598
2 30.9138 41.9045 23.9668
1 30.585 42.7634 22.0693
2 30.8286 41.8125 21.5626
1 30.2767 43.9353 21.3753
2 30.2988 43.8949 20.2796
1 29.9195 45.1019 22.0729
1 29.9578 45.0697 23.4787
2 29.7519 45.9697 23.991
1 29.6222 46.341 21.3709
1 31.9586 44.439 30.5706
1 32.266 44.4939 32.017
1 32.9162 43.4123 32.6631
2 33.164 42.4848 32.1363
1 33.2465 43.5414 34.005
2 33.6669 42.7036 34.5357
1 33.0379 44.7367 34.6981
2 33.2869 44.8385 35.7613
1 32.3821 45.8324 34.0815
1 32.0333 45.6994 32.7188
2 31.4971 46.5243 32.2125
1 32.2446 47.1236 34.8024
1 27.0223 47.5056 20.0018
1 25.6632 46.9725 19.9522
1 25.1749 46.3256 18.7975
2 25.7994 46.1481 17.9059
1 23.8914 45.8396 18.7576
2 23.4493 45.4534 17.8412
1 23.0536 45.9554 19.8567
2 22.0491 45.6018 19.7313
1 23.5243 46.6065 21.0007
1 24.8033 47.0904 21.0168
2 25.1407 47.6257 21.9089
1 22.6356 46.8439 22.1331
1 27.901 50.4289 18.8813
1 27.0637 51.4389 18.1927
1 26.9055 51.4668 16.7927
2 27.3896 50.7356 16.1345
1 26.1859 3.94616 16.1625
2 26.0668 3.9076 15.1115
1 25.5254 4.90541 16.9137
2 24.9439 5.64627 16.398
1 25.605 4.90133 18.2959
1 26.4017 3.90367 18.9459
2 26.5826 4.0106 19.9928
1 24.9754 5.93551 19.1306
1 29.8619 48.0438 36.6335
1 28.7105 47.168 36.8912
1 28.6157 46.3985 38.0511
2 29.4388 46.4222 38.7385
1 27.5735 45.5651 38.2937
2 27.5723 44.9368 39.1911
1 26.5952 45.4185 37.346
2 25.8387 44.6646 37.5488
1 26.634 46.1793 36.1625
1 27.6525 47.1128 35.9729
2 27.6523 47.7745 35.0942
1 25.5387 46.0441 35.1593
1 34.0792 50.8553 35.3588
1 35.1975 51.7847 35.0901
1 36.518 51.4744 35.4203
2 36.7271 50.5513 35.9632
1 37.6266 3.90138 35.164
2 38.5979 52.1144 35.3939
1 37.3605 5.13875 34.5542
2 38.1908 5.82755 34.3598
1 36.0289 5.44477 34.1607
1 34.9944 4.52158 34.415
2 33.9654 4.72899 34.0965
1 35.689 6.74846 33.5543
1 34.8325 10.5126 30.2523
1 34.9624 11.361 29.0624
1 36.0011 12.2886 28.964
2 36.6772 12.4604 29.797
1 36.2538 12.9967 27.7915
2 37.0158 13.7465 27.8064
1 35.4775 12.7554 26.6559
2 35.6974 13.2627 25.7164
1 34.3768 11.8868 26.7459
1 34.1091 11.1865 27.9362
2 33.2328 10.4779 27.987
1 33.5868 11.6111 25.5258
3 35.2622 49.8127 26.1444
3 37.4043 49.9541 26.6343
3 34.957 51.787 23.6815
3 36.7461 50.5949 23.3379
3 35.5379 4.79821 24.3237
3 37.7629 4.78252 24.5408
3 36.3216 4.3608 27.2741
3 38.2446 4.41778 26.1744
3 29.4657 44.6138 29.58
3 29.9484 42.5477 28.9797
3 29.8137 44.6073 26.3558
3 31.5742 43.3614 26.074
3 32.5715 45.9169 27.6007
3 33.5549 44.0908 28.4764
3 31.0551 45.1768 30.072
3 32.6627 43.6481 29.8305
3 27.5887 47.8265 21.1147
3 27.6278 47.8063 18.8978
3 28.3239 50.6322 20.0547
3 28.1007 49.2972 18.2732
3 31.1823 49.2184 21.1792
3 31.1782 49.5033 18.9997
3 28.9261 47.25 21.9351
3 30.0423 46.5304 20.2024
3 29.7192 49.0943 35.9165
3 31.0294 47.6623 37.0493
3 31.8373 48.1491 34.1478
3 32.3647 47.1893 36.0666
3 32.908 51.2596 35.1404
3 34.2627 49.6884 35.7909
3 29.9562 50.7478 36.266
3 31.6326 50.6823 37.6809
3 34.5841 6.82281 32.9213
3 36.5064 7.73 33.532
3 35.4172 7.95237 30.5971
3 37.0611 8.37516 32.0339
3 34.3216 9.37145 30.1535
3 35.411 10.8645 31.3243
3 32.7233 9.67396 32.9791
3 34.3254 9.9109 34.4257
3 22.5409 48.0332 33.8568
3 21.2372 46.2916 33.9698
3 23.2893 46.3677 31.0772
3 22.5479 44.5185 32.0654
3 25.5264 45.4523 32.5914
3 23.9889 43.8656 32.8312
3 25.7359 46.5222 34.0038
3 24.408 45.5531 35.4392
3 33.2239 52.1113 26.586
3 29.8952 47.4835 27.699
3 29.019 50.5084 23.0695
3 30.721 50.8794 32.985
3 31.9092 7.37844 31.0882
3 24.9334 49.0446 32.1554
4 35.1164 51.8615 25.8292
4 37.8595 51.1264 24.9796
4 30.5806 45.5619 27.9868
4 31.8179 42.8856 28.0782
4 29.123 49.3 21.376
4 29.7097 48.0061 18.6992
4 31.2352 50.0442 34.771
4 32.7146 49.0264 37.102
4 33.6445 8.27985 31.7995
4 35.8896 9.82386 33.0133
4 24.1775 47.2103 32.7418
4 22.8037 44.9456 34.1735
1 19.1082 7.59393 29.7671
1 19.1245 8.96226 29.173
1 17.9253 9.60205 28.7778
2 16.9668 9.07798 28.8376
1 17.9724 10.9563 28.3521
2 17.0435 11.4796 28.0439
1 19.2224 11.6163 28.2901
2 19.2818 12.6719 27.9722
1 20.3976 10.9472 28.6757
1 20.3331 9.66896 29.145
2 21.2924 9.25439 29.5503
1 21.7164 11.638 28.5971
1 19.9524 6.01064 33.4293
1 20.4437 6.43835 34.7289
1 19.5741 6.57394 35.8119
2 18.4934 6.42032 35.7159
1 20.0859 6.97029 37.0503
2 19.4709 7.0539 37.9362
1 21.4484 7.23016 37.2246
2 21.8365 7.53674 38.1899
1 22.3156 7.1179 36.1616
1 21.8087 6.64623 34.9222
2 22.4897 6.50963 34.1143
1 23.7203 7.6252 36.2587
1 19.0399 51.6027 32.4437
1 19.0299 50.3298 33.2139
1 17.8623 49.8927 33.863
2 16.9094 50.4104 33.7857
1 17.9162 48.7561 34.6726
2 17.0084 48.4497 35.1367
1 19.0625 48.0172 34.7723
2 18.9592 47.0904 35.3654
1 20.2339 48.4139 34.1144
1 20.2043 49.5696 33.3467
2 21.1349 49.9328 32.8446
1 21.4064 47.5392 34.067
1 18.3998 51.8109 29.338
1 17.9673 50.7534 28.4106
1 16.6239 50.3468 28.4283
2 15.8808 50.8037 29.0793
1 16.1696 49.4291 27.4668
2 15.1101 49.2429 27.3539
1 17.0512 48.8783 26.5459
2 16.7035 48.2077 25.7857
1 18.4397 49.1563 26.634
1 18.8801 50.1124 27.5729
2 19.9312 50.3799 27.5859
1 19.397 48.5619 25.701
1 25.9782 13.4773 26.5856
1 27.1237 13.9624 25.7479
1 27.2593 15.3351 25.4703
2 26.5075 16.0762 25.7583
1 28.3347 15.8359 24.7229
2 28.4317 16.8896 24.526
1 29.3073 14.9016 24.2554
2 30.1388 15.2906 23.6953
1 29.2385 13.5403 24.6026
1 28.0988 13.0637 25.2974
2 28.018 12.0181 25.6011
1 30.2789 12.5852 24.1845
1 24.8193 13.242 30.706
1 25.1377 13.2669 32.156
1 24.8437 14.4063 32.8647
2 24.5054 15.3084 32.3543
1 24.9585 14.3933 34.2504
2 24.8706 15.303 34.8251
1 25.3438 13.2154 34.9677
2 25.3995 13.1729 36.0673
1 25.6185 12.065 34.2243