2784
 Atoms. Timestep: 0
1 55.0148 6.83449 3.86493
1 53.8487 7.40071 3.16338
1 53.2893 8.59898 3.67645
2 53.6209 9.07299 4.61256
1 52.2067 9.15279 3.00743
2 51.7408 10.0284 3.37934
1 51.693 8.61246 1.80372
2 50.873 9.13179 1.29594
1 52.1846 7.34188 1.34395
1 53.2626 6.79902 2.0298
2 53.6832 5.81189 1.70127
1 51.5149 6.57888 0.291083
1 54.6463 4.60534 6.38209
1 53.4814 4.00948 7.08012
1 52.794 4.60052 8.15634
2 53.08 5.57073 8.4074
1 51.7567 3.89457 8.82913
2 51.232 4.297 9.70496
1 51.3304 2.67301 8.33955
2 50.3964 2.31355 8.68573
1 51.9727 2.03435 7.2335
1 53.0992 2.76498 6.63136
2 53.6158 2.30828 5.7321
1 51.3977 0.82329 6.57569
1 0.156576 4.14689 6.25977
1 1.28736 3.44775 6.89998
1 1.91764 3.99345 7.98192
2 1.63884 4.98567 8.37146
1 3.03903 3.41864 8.5538
2 3.53237 4.01478 9.32021
1 3.49211 2.16867 8.11399
2 4.31231 1.75505 8.66105
1 2.91218 1.53941 6.98271
1 1.7835 2.2114 6.42529
2 1.35311 1.84096 5.46167
1 3.56381 0.444752 6.36313
1 0.282799 6.63625 3.98227
1 1.39284 7.2431 3.2281
1 1.66672 8.64172 3.41637
2 1.23794 9.21444 4.16912
1 2.67668 9.22426 2.62152
2 2.95225 10.2132 2.76715
1 3.48262 8.46379 1.77392
2 4.2828 8.95112 1.1642
1 3.19647 7.10365 1.61965
1 2.24179 6.483 2.41471
2 2.15322 5.39445 2.34056
1 4.00381 6.32581 0.596793
1 49.3239 4.21604 55.2516
1 48.9173 3.78707 53.8649
1 48.0595 4.6027 53.179
2 47.8897 5.5859 53.5039
1 47.6688 4.33252 51.9185
2 46.8959 4.83955 51.4311
1 48.1957 3.12872 51.289
2 47.8119 2.85663 50.296
1 49.0748 2.28873 51.9499
1 49.453 2.65904 53.2588
2 50.1831 2.02245 53.7773
1 49.5369 1.04383 51.3495
1 49.3955 4.06012 0.64137
1 48.7856 3.52832 1.84262
1 47.5253 4.01927 2.26171
2 46.9631 4.91202 1.89189
1 46.855 3.26731 3.1836
2 45.8638 3.46021 3.50376
1 47.3557 2.11459 3.72094
2 46.7845 1.70842 4.55138
1 48.6614 1.7103 3.45175
1 49.3545 2.34709 2.42973
2 50.3002 1.95811 2.01039
1 49.3082 0.542357 4.11847
1 51.9298 6.36405 55.5905
1 52.5923 7.15491 54.5113
1 52.0027 8.37444 54.0492
2 51.0639 8.6928 54.4211
1 52.5572 9.01784 52.891
2 52.1946 9.93495 52.5546
1 53.5853 8.3547 52.1643
2 53.8728 8.76084 51.2376
1 54.1738 7.18441 52.6562
1 53.6617 6.57721 53.8345
2 54.0016 5.60752 54.0695
1 55.2968 6.54775 51.9386
1 49.1858 56.2642 3.14983
1 48.5775 55.632 1.92128
1 47.2146 55.8864 1.64825
2 46.6391 56.6129 2.13535
1 46.5507 55.0732 0.699886
2 45.5148 55.283 0.44144
1 47.2305 54.0534 0.0105209
2 46.6643 53.4442 -0.728048
1 48.5826 53.8503 0.238769
1 49.1843 54.6131 1.21464
2 50.1532 54.4438 1.40409
1 49.3291 52.7987 -0.502346
1 51.246 55.0952 6.5337
1 51.7669 53.7826 6.93833
1 50.9361 53.0319 7.78082
2 49.9907 53.4682 8.14766
1 51.4179 51.8146 8.23116
2 50.8265 51.1125 8.8532
1 52.6214 51.3474 7.8797
2 52.889 50.3735 8.1532
1 53.439 52.0279 7.00462
1 53.0642 53.3851 6.66491
2 53.7549 54.0919 6.2159
1 54.7189 51.4347 6.47247
1 55.605 4.23364 49.4876
1 54.5509 3.43568 48.7547
1 54.3967 3.5646 47.3231
2 55.0332 4.17649 46.7083
1 53.3411 2.82665 46.7181
2 53.1539 2.94337 45.6476
1 52.5033 2.01705 47.5017
2 51.7454 1.48204 46.9406
1 52.9187 1.62391 48.813
1 53.8582 2.46382 49.431
2 54.1974 2.19876 50.3902
1 52.1304 0.524985 49.5171
1 0.764547 6.46219 51.9351
1 2.08233 6.9841 52.519
1 2.73002 8.09129 51.9259
2 2.33035 8.55725 51.0575
1 3.90295 8.57337 52.5216
2 4.47231 9.3769 52.1423
1 4.39409 7.97308 53.6659
2 5.22412 8.43262 54.2014
1 3.71534 6.86171 54.2414
1 2.58578 6.30868 53.6458
2 2.06092 5.48422 54.0651
1 4.30415 6.21322 55.5279
1 6.42298 3.88217 0.661292
1 7.04409 3.26598 1.87924
1 8.09582 3.9571 2.54939
2 8.69744 4.73574 2.00766
1 8.4257 3.57823 3.83214
2 9.18318 4.10525 4.36357
1 7.81822 2.46729 4.44013
2 8.2144 2.27469 5.49548
1 6.85783 1.65774 3.72553
1 6.46705 2.11068 2.47418
2 5.61335 1.58935 2.10665
1 6.26384 0.490631 4.45638
3 55.7327 6.03661 3.25976
3 55.1625 6.92959 5.12195
3 55.4613 3.84058 5.75008
3 54.9295 5.88373 6.44901
3 0.051384 4.23978 4.99263
3 -0.615502 4.89179 6.93938
3 0.183755 5.36164 3.89714
3 -0.606035 7.29602 4.62234
3 49.8532 3.44429 56.1213
3 49.3015 5.46703 55.4339
3 50.6529 4.02246 0.455741
3 48.6771 4.50311 -0.246597
3 51.7979 5.36791 0.104973
3 50.5286 7.12108 -0.299232
3 52.5127 5.3617 56.1654
3 50.658 6.59464 55.871
3 50.4557 56.4976 3.11137
3 48.5248 56.6602 4.20208
3 51.9955 56.0239 6.10595
3 50.0317 55.2965 6.42698
3 51.7666 0.524264 5.39125
3 50.4395 0.162951 7.18336
3 50.5907 0.50595 4.1582
3 48.6099 -0.307959 4.71503
3 55.7372 4.20006 50.7427
3 56.4334 4.89928 48.8442
3 55.4143 5.24706 51.9294
3 56.0752 7.2273 51.2736
3 -0.0393481 5.90768 52.7165
3 0.513677 6.50685 50.6626
3 -0.0761756 3.41027 50.5571
3 0.497681 5.29961 49.4659
3 4.09611 4.89593 55.6544
3 4.99893 6.85568 56.407
3 3.39022 5.60791 -0.289034
3 5.24524 6.27898 0.702614
3 5.80774 3.19689 -0.229588
3 6.42394 5.13187 0.585119
3 5.34548 3.8193 55.8627
3 7.21564 4.7214 56.6259
3 51.6284 55.4883 50.8862
3 50.8036 56.009 48.8981
3 50.5518 55.7123 51.9108
3 48.6807 56.6608 51.3875
3 49.9951 0.15226 52.1552
3 49.5329 0.816864 50.0921
3 52.7355 -0.236652 50.4392
3 50.8739 0.325682 49.2086
3 56.3053 2.75762 3.34342
3 52.9824 2.60064 57.396
3 53.6447 57.2392 3.7945
3 -1.2975 3.41764 53.7201
3 2.77589 2.49722 57.5003
3 52.7368 -0.789732 53.5043
4 56.8401 4.51123 4.23386
4 56.8644 6.49762 6.25895
4 51.4538 4.01793 57.3964
4 49.2015 6.05081 57.4393
4 51.6811 57.2431 4.4972
4 49.1786 57.0827 6.25468
4 57.3408 4.39905 51.948
4 57.3139 6.52853 49.7377
4 4.21694 3.97824 57.5468
4 6.27833 6.26256 -1.1414
4 51.5623 -1.18105 51.7765
4 49.5173 -1.2501 49.6687
1 -0.170218 49.1435 52.5931
1 0.674483 48.4203 53.5813
1 0.721261 47.0275 53.6124
2 0.132921 46.3659 52.9893
1 1.61049 46.4042 54.5201
2 1.65687 45.3759 54.5812
1 2.37215 47.1844 55.3735
2 3.10461 46.6863 55.9589
1 2.27766 48.5996 55.4179
1 1.35878 49.2445 54.5766
2 1.23489 50.3458 54.5444
1 3.23606 49.3746 56.2162
1 0.71053 51.6638 49.3514
1 1.93909 52.1857 48.8213
1 2.71919 51.3874 47.9707
2 2.47819 50.3592 47.6979
1 3.90378 51.8316 47.5714
2 4.58507 51.1723 47.0955
1 4.39681 53.0297 47.9847
2 5.42212 53.3397 47.7342
1 3.75944 53.8487 48.9408
1 2.44357 53.4475 49.3141
2 1.81632 54.0615 50.0107
1 4.47388 55.039 49.521
1 55.2013 51.8013 49.571
1 54.1035 52.462 48.8845
1 53.7762 52.1476 47.6263
2 54.3964 51.5412 46.9814
1 52.7606 52.768 46.9646
2 52.7768 52.6889 45.9037
1 52.0744 53.7673 47.548
2 51.4192 54.3744 46.9612
1 52.2714 54.1436 48.8958
1 53.2853 53.4032 49.5913
2 53.4316 53.6921 50.595
1 51.534 55.2735 49.6065
1 55.5131 49.4617 51.8765
1 54.4234 48.7694 52.6218
1 54.3386 47.3899 52.6464
2 55.1328 46.7641 52.2105
1 53.3099 46.6717 53.3084
2 53.1592 45.5876 53.2207
1 52.3545 47.4576 54.0134
2 51.5134 46.998 54.5008
1 52.4534 48.8404 54.1162
1 53.4359 49.5159 53.3207
2 53.5108 50.6625 53.3205
1 51.5673 49.5454 55.0399
1 6.02942 51.7 0.832161
1 6.73324 52.3659 2.02347
1 8.12214 52.2213 2.27163
2 8.72898 51.484 1.73571
1 8.71533 52.879 3.30115
2 9.756 52.7518 3.49526
1 8.12492 53.9556 3.86745
2 8.70905 54.5957 4.58678
1 6.78484 54.1785 3.62464
1 6.02568 53.3252 2.78303
2 4.97282 53.5357 2.59069
1 6.08254 55.2587 4.2346
1 6.43259 51.728 55.7827
1 7.06569 52.2298 54.5894
1 8.12712 51.5729 53.9623
2 8.50946 50.7983 54.4396
1 8.6025 52.0779 52.6975
2 9.40165 51.5726 52.1473
1 7.96241 53.1819 52.0701
2 8.41079 53.5772 51.1183
1 6.98367 53.8751 52.8012
1 6.51631 53.4312 54.0515
2 5.68423 53.9109 54.4993
1 6.52045 55.1081 52.1247
1 3.59008 49.6753 0.481624
1 2.7749 48.9042 1.52483
1 3.11314 47.575 1.79803
2 3.79704 47.034 1.24601
1 2.38725 46.8499 2.72125
2 2.61863 45.8045 2.89227
1 1.36238 47.4623 3.424
2 0.666365 46.8369 4.04645
1 1.20464 48.8254 3.3783
1 1.88657 49.5217 2.39284
2 1.76227 50.6448 2.40731
1 0.12349 49.4705 4.18296
1 6.62555 0.247944 52.2522
1 7.39049 1.28648 53.1167
1 8.77755 1.35034 52.9851
2 9.34967 0.778816 52.3023
1 9.44821 2.32519 53.706
2 10.5441 2.38547 53.6524
1 8.86209 3.1004 54.6474
2 9.49522 3.66653 55.2547
1 7.43384 3.02956 54.8743
1 6.73193 2.14466 54.0307
2 5.74007 2.00373 54.0695
1 6.61436 3.86777 55.8894
1 4.35796 0.50094 49.7925
1 3.70801 1.76053 49.2158
1 4.25007 2.43475 48.1182
2 5.21294 2.05935 47.6497
1 3.65925 3.49354 47.5177
2 4.09235 3.83057 46.6001
1 2.42784 3.97133 48.1115
2 2.06452 4.93565 47.5824
1 1.9017 3.3865 49.2279
1 2.55808 2.27286 49.7721
2 2.03301 1.80322 50.6459
1 0.676966 4.06572 49.751
1 0.351808 51.8045 6.61836
1 1.33013 52.5192 7.36885
1 1.62948 52.2122 8.68606
2 1.09214 51.4918 9.28915
1 2.5447 53.0129 9.38501
2 2.71139 52.8749 10.477
1 3.33737 53.9225 8.76913
2 4.13805 54.3652 9.32823
1 3.14392 54.1625 7.39532
1 2.10118 53.4806 6.69099
2 1.99508 53.6213 5.5963
1 3.89056 55.2632 6.70812
1 55.3001 49.4969 3.81621
1 54.1012 48.8824 3.13393
1 53.3962 47.9232 3.86777
2 53.7617 47.5358 4.8021
1 52.3169 47.2561 3.24599
2 51.9466 46.3064 3.76243
1 51.8574 47.6422 1.97549
2 51.1829 46.9539 1.4995
1 52.4373 48.7657 1.3517
1 53.5514 49.3773 1.96245
2 54.0454 50.1886 1.4763
1 51.7858 49.3542 0.183856
1 49.4582 52.2015 55.454
1 48.6896 53.15 54.648
1 47.3179 53.2543 54.7375
2 46.9104 52.7159 55.5065
1 46.536 54.0295 53.9029
2 45.474 54.1336 54.0565
1 47.1813 54.8149 52.9621
2 46.5494 55.5119 52.4259
1 48.6182 54.79 52.8126
1 49.3427 53.8967 53.6311
2 50.4598 54.1029 53.7785
1 49.3161 55.739 51.9712
3 -0.35076 50.3927 52.7988
3 -0.686998 48.5755 51.5268
3 0.0572541 52.3524 50.1553
3 0.507255 50.4259 49.3426
3 55.453 52.048 50.8052
3 55.9108 50.9403 48.9698
3 55.7125 50.6935 52.0868
3 56.3501 48.7862 51.1141
3 4.81555 52.0447 0.501117
3 6.62586 50.8242 0.15175
3 5.85915 52.4766 56.6475
3 6.34896 50.4554 55.8899
3 3.03573 50.6187 56.3873
3 4.23911 48.8243 56.6973
3 3.62525 50.9595 0.450169
3 4.20323 48.9637 -0.40365
3 5.34167 0.183167 52.2982
3 7.2715 -0.484227 51.4745
3 4.27586 0.308815 51.0642
3 5.11534 -0.228213 49.0429
3 3.77625 55.9334 50.0612
3 5.75926 55.1474 49.5508
3 5.69516 55.8053 52.7306
3 6.77666 55.3811 50.929
3 0.197008 51.9376 5.35551
3 -0.52625 51.173 7.28984
3 0.134045 50.7275 4.28414
3 -0.81976 48.8738 4.78297
3 55.8291 50.4709 3.29419
3 55.5093 49.1732 5.03479
3 55.6355 52.1448 5.89351
3 54.9326 50.1918 6.55126
3 52.4436 50.2998 -0.41376
3 50.581 49.13 -0.138781
3 51.8359 50.7757 55.237
3 50.6675 48.9773 55.7486
3 50.7746 52.074 55.3574
3 48.8209 51.547 56.3878
3 50.5827 53.0103 -0.679061
3 48.7643 51.8327 -1.12204
3 2.98786 -0.255589 5.4434
3 4.79145 0.241582 6.6672
3 5.67887 -0.401942 3.81418
3 6.19774 0.470701 5.72125
3 4.81395 55.2662 4.23788
3 6.75324 56.0982 4.91662
3 3.80569 55.3656 5.4275
3 4.55904 56.0711 7.39737
3 -0.873839 53.3679 52.8114
3 2.75294 53.6187 57.1761
3 2.45153 56.9047 53.127
3 56.8817 53.3441 2.96698
3 53.4702 52.6963 57.549
3 2.87 57.1046 2.49961
4 -1.30029 51.7133 51.6387
4 -1.29576 49.5038 49.595
4 4.07448 51.9263 57.5586
4 5.94283 49.4736 57.5585
4 4.15835 57.1006 51.8375
4 6.6158 57.1366 49.7902
4 56.9633 51.7653 4.32914
4 56.9518 49.5545 6.45131
4 51.8502 51.6486 57.1685
4 49.4864 49.7554 57.199
4 3.94301 57.0709 4.27191
4 5.99134 57.168 6.50921
2 2.95388 54.2458 56.472
2 1.94709 53.7689 -1.28158
2 52.715 1.65707 57.4199
2 53.9176 2.88656 57.4939
2 53.6474 -0.431342 53.501
2 52.1229 -0.727145 54.2596
2 57.1171 3.86335 54.5078
2 -1.11241 2.47883 53.7993
2 2.36248 56.2871 2.34996
2 3.17479 -0.925166 1.86178
2 55.8542 2.07881 3.79934
2 56.9293 2.5489 2.65535
2 2.6872 2.07397 -0.667531
2 2.23072 2.32874 56.7256
2 56.3239 54.0998 3.12115
2 -1.28884 53.2453 2.18551
2 54.1006 56.4382 3.95554
2 54.2285 -0.623381 3.66734
2 53.6487 53.6723 -1.12818
2 54.2781 52.3166 57.1776
2 2.0589 -0.960541 53.2762
2 1.9916 56.0781 53.1982
2 -0.0741063 53.7037 52.5297
2 -1.32406 53.5448 53.6022
1 55.4035 20.5008 22.3976
1 54.2896 19.814 23.1496
1 53.9994 18.4869 22.8518
2 54.5222 17.9861 22.0324
1 53.0922 17.7458 23.5971
2 53.0511 16.7226 23.3175
1 52.4466 18.373 24.6885
2 51.7435 17.8402 25.2756
1 52.7061 19.7442 25.0397
1 53.6756 20.4607 24.2754
2 53.885 21.5526 24.457
1 52.0327 20.4563 26.2451
1 55.005 22.4159 20.0677
1 53.7899 23.0105 19.3969
1 53.1821 22.3002 18.3763
2 53.6797 21.4125 18.0273
1 51.9683 22.7392 17.7651
2 51.3212 22.1477 17.1114
1 51.499 23.9762 18.1717
2 50.6312 24.3888 17.7563
1 52.1813 24.7917 19.0541
1 53.241 24.2131 19.7272
2 53.7524 24.7963 20.4741
1 51.6968 26.091 19.4826
1 0.435442 22.8605 19.6987
1 1.67384 23.5845 19.1673
1 2.33658 22.9714 18.1027
2 1.91929 22.1573 17.5798
1 3.64285 23.3696 17.7451
2 4.15387 22.9373 16.8784
1 4.15664 24.5489 18.3866
2 5.06972 24.9316 17.9742
1 3.50045 25.2016 19.4577
1 2.2281 24.7603 19.7603
2 1.75517 25.1529 20.6087
1 4.16034 26.3121 20.116
1 -0.200383 20.0028 22.7879
1 0.545148 19.3149 23.7729
1 0.0944876 18.0271 24.1299
2 -0.644539 17.4823 23.5729
1 0.765735 17.3111 25.1872
2 0.57998 16.2185 25.4427
1 1.838 18.0018 25.8873
2 2.23534 17.5566 26.7547
1 2.17291 19.319 25.5608
1 1.56625 20.0094 24.4689
2 1.78391 21.1092 24.2754
1 3.36559 19.9997 26.2535
1 49.1659 22.6504 30.0365
1 48.5535 23.1171 31.3031
1 47.5777 22.3553 31.9109
2 47.0227 21.558 31.3745
1 47.1464 22.6358 33.1945
2 46.4337 21.9784 33.6808
1 47.5936 23.8058 33.839
2 47.3937 23.9578 34.9438
1 48.4885 24.6666 33.1768
1 48.9844 24.3 31.9314
2 49.6902 24.8115 31.477
1 49.0229 25.8737 33.897
1 49.5243 22.4273 25.945
1 49.0434 22.9049 24.6465
1 48.006 22.218 23.9564
2 47.7213 21.2092 24.308
1 47.5195 22.7087 22.765
2 46.6935 22.1036 22.2955
1 47.9083 23.9393 22.2161
2 47.3975 24.3113 21.3409
1 48.9861 24.5633 22.8491
1 49.5931 24.0371 24.0105
2 50.3142 24.5784 24.5567
1 49.4912 25.8721 22.2377
1 52.3838 19.8967 29.3818
1 53.3681 19.0347 30.1095
1 53.6696 17.7762 29.5774
2 53.1702 17.3423 28.6794
1 54.4534 16.9414 30.4128
2 54.6722 15.8831 30.1207
1 55.0835 17.4399 31.5353
2 55.7017 16.7324 32.1731
1 55.0308 18.8219 31.8515
1 54.0592 19.5512 31.191
2 53.7619 20.5511 31.4996
1 55.7939 19.5282 32.9106
1 49.5909 29.6906 22.5282
1 48.8844 30.6897 23.2813
1 47.6873 31.2378 22.7947
2 47.176 30.7894 21.9794
1 47.0802 32.2873 23.4931
2 46.1425 32.6171 23.1747
1 47.7307 32.8659 24.5958
2 47.2338 33.5489 25.2084
1 48.9381 32.315 25.069
1 49.4667 31.2058 24.4468
2 50.4635 30.8719 24.698
1 49.5668 33.005 26.1757
1 51.8269 30.1039 20.0562
1 52.4608 31.3275 19.5932
1 51.9725 32.0284 18.5382
2 51.143 31.5967 17.9151
1 52.5926 33.2165 18.1074
2 52.237 33.6937 17.1778
1 53.6865 33.713 18.8456
2 54.0451 34.7131 18.5762
1 54.3177 32.9594 19.8185
1 53.648 31.7777 20.2042
2 54.082 31.161 21.0836
1 55.3784 33.5249 20.6454
1 54.8404 22.2538 36.0856
1 53.6074 22.8156 36.7955
1 53.0299 22.208 37.932
2 53.6534 21.5124 38.5293
1 51.825 22.7141 38.5046
2 51.3625 22.2077 39.3005
1 51.1996 23.8022 37.8644
2 50.2814 24.0922 38.3726
1 51.8689 24.543 36.8632
1 53.0155 24.0414 36.3567
2 53.41 24.5622 35.4671
1 51.1707 25.7144 36.283
1 0.182914 19.9666 33.4946
1 1.15228 19.3989 32.5298
1 1.3618 18.0049 32.5953
2 0.792801 17.4274 33.356
1 1.98061 17.2723 31.5849
2 1.82687 16.1896 31.5024
1 2.66327 18.0091 30.6252
2 3.33028 17.4827 29.9222
1 2.59696 19.4517 30.5501
1 1.8423 20.1233 31.5665
2 1.74978 21.1804 31.5664
1 3.31068 20.2022 29.4453
1 6.53116 22.6139 26.0185
1 7.29475 23.2804 24.8985
1 8.3968 22.6397 24.2356
2 8.57604 21.66 24.5878
1 8.97443 23.1891 23.0311
2 9.81494 22.6171 22.6396
1 8.3371 24.2857 22.4417
2 8.70947 24.6323 21.4604
1 7.30884 24.9448 23.0658
1 6.82438 24.4455 24.3194
2 6.0224 24.9369 24.832
1 6.69204 26.0825 22.4153
3 55.5762 21.7683 22.538
3 56.2849 19.7965 21.7994
3 55.3662 22.9302 21.1637
3 55.748 21.535 19.4675
3 -0.373122 23.5877 20.3702
3 0.559164 21.6591 19.8781
3 -0.38665 21.239 22.8943
3 -0.73448 19.3629 21.8255
3 49.9004 23.4188 29.3013
3 49.3633 21.3662 30.0127
3 50.6099 22.8838 26.4073
3 48.9287 21.5044 26.5778
3 52.0332 21.7306 26.3804
3 51.4078 19.6904 27.0863
3 52.4568 21.142 29.414
3 51.3879 19.3422 28.7743
3 50.8699 29.6595 22.4846
3 48.9466 28.8659 21.7969
3 51.8756 29.8964 21.2929
3 50.9019 29.4715 19.4191
3 52.443 26.8181 20.2132
3 50.4448 26.1767 19.6151
3 50.3047 26.6747 22.8295
3 49.1943 26.151 21.0138
3 55.6689 23.0732 35.5581
3 55.0449 20.994 36.0407
3 55.6979 20.8037 32.9793
3 56.5332 18.9406 33.7644
3 0.0335018 21.233 33.5735
3 -0.66187 19.1785 34.0044
3 0.0370956 22.3166 34.87
3 -0.371704 20.9024 36.57
3 3.52035 21.5081 29.5305
3 4.01724 19.4681 28.6477
3 3.41895 21.2677 26.3591
3 4.05541 19.327 27.0709
3 5.85826 23.2725 26.8383
3 6.40128 21.3833 26.1056
3 4.83642 22.4632 29.8014
3 6.60048 21.2109 29.3575
3 51.498 29.689 35.0835
3 50.8099 28.8512 37.0052
3 50.4417 29.7525 33.9116
3 48.4086 29.2345 34.6992
3 49.7058 26.7063 33.2305
3 48.8291 26.0379 35.1766
3 51.8862 26.5679 35.6671
3 49.8854 25.7979 36.298
3 -0.990348 24.2215 23.3235
3 53.0572 24.254 28.2588
3 53.5689 27.5005 23.1716
3 56.5351 23.921 32.6943
3 3.06452 24.4335 27.4665
3 52.7746 27.576 32.8444
4 57.3519 22.8491 21.9043
4 -1.20434 20.4745 20.1153
4 51.6138 22.79 28.2358
4 49.6693 20.4439 28.1585
4 51.8051 27.7917 22.0131
4 49.4249 27.948 20.075
4 56.8059 22.2524 33.9267
4 56.7922 19.8543 35.6811
4 4.12925 22.5901 27.7516
4 5.8839 20.3128 27.7278
4 51.2051 27.7943 34.1065
4 49.1563 27.8594 36.2249
1 0.758328 35.2702 34.3327
1 2.08035 35.5203 33.9192
1 2.93165 36.1722 34.8427
2 2.54207 36.6002 35.7578
1 4.3248 36.3293 34.5649
2 4.92028 36.7975 35.3386
1 4.78669 35.9351 33.2712
2 5.79295 36.2461 33.0026
1 3.90244 35.3815 32.3107
1 2.59736 35.0681 32.6717
2 1.99682 34.5407 31.9873
1 4.47511 34.8833 30.9958
1 0.370431 32.8916 36.3706
1 1.41485 32.0945 37.0618
1 2.02617 32.6882 38.1664
2 1.75783 33.73 38.4628
1 3.18368 32.0819 38.6984
2 3.57183 32.6199 39.5691
1 3.58169 30.7815 38.2865
2 4.4203 30.3004 38.7768
1 2.89278 30.1715 37.2124
1 1.87105 30.9104 36.5271
2 1.31933 30.441 35.6873
1 3.43239 28.9811 36.5404
1 55.3349 32.8854 36.0965
1 54.2535 32.269 36.8403
1 54.284 32.3606 38.2519
2 54.9332 33.1531 38.8428
1 53.3828 31.5614 39.04
2 53.3115 31.6525 40.0943
1 52.3951 30.8383 38.3674
2 51.6282 30.3207 38.9217
1 52.4219 30.6477 36.9834
1 53.3358 31.4156 36.2014
2 53.1854 31.3781 35.1086
1 51.4403 29.7761 36.3234
1 55.3478 35.3467 33.7142
1 54.2507 36.045 33.0205
1 53.9464 37.3209 33.3336
2 54.484 37.859 34.0916
1 52.9698 38.04 32.5729
2 52.8431 39.142 32.6392
1 52.4328 37.4363 31.4159
2 51.7127 37.9961 30.7778
1 52.57 36.0728 31.2291
1 53.6285 35.4423 31.8849
2 53.99 34.4722 31.5338
1 51.8516 35.3502 30.149
1 6.56651 33.0305 26.5608
1 7.22939 32.48 25.4293
1 8.60046 32.7604 25.1997
2 9.27439 33.4551 25.811
1 9.31177 32.0455 24.1898
2 10.3648 32.3171 24.0648
1 8.64791 31.1707 23.361
2 9.23168 30.6409 22.5986
1 7.31571 30.8868 23.5853
1 6.59435 31.5122 24.6185
2 5.51919 31.2574 24.7794
1 6.5889 29.8802 22.821
1 6.71044 32.0927 30.2011
1 7.41227 31.1642 31.0691
1 8.78691 31.2836 31.2594
2 9.32263 32.0555 30.7707
1 9.42345 30.3693 32.1232
2 10.5237 30.5368 32.3153
1 8.71219 29.356 32.7656
2 9.25066 28.7236 33.4676
1 7.30689 29.3273 32.6878
1 6.65233 30.1885 31.6727
2 5.61104 30.2208 31.6592
1 6.49654 28.4692 33.574
1 4.03271 35.1249 27.1096
1 3.2563 36.023 26.256
1 3.26111 37.4462 26.4297
2 4.03246 37.8916 27.0279
1 2.47522 38.266 25.6436
2 2.61224 39.391 25.6946
1 1.65589 37.6699 24.6881
2 1.27542 38.2874 23.8845
1 1.51815 36.2551 24.4976
1 2.27436 35.4252 25.3308
2 2.19217 34.3693 25.2909
1 0.516354 35.7239 23.4678
1 6.09207 25.3248 33.8702
1 6.74325 24.2242 33.1254
1 8.01462 23.765 33.4879
2 8.57462 24.1934 34.3844
1 8.62258 22.7707 32.7293
2 9.59813 22.5295 33.0531
1 8.06345 22.2714 31.6081
2 8.74317 21.5668 31.0462
1 6.72946 22.5565 31.2788
1 6.0724 23.584 32.0108
2 5.04688 23.7602 31.7711
1 5.99392 22.0112 30.1288
1 4.01903 25.1396 36.2173
1 3.41006 23.929 36.8111
1 3.82722 23.4143 38.0554
2 4.64333 23.8807 38.5782
1 3.21473 22.3462 38.6047
2 3.46847 22.0395 39.5811
1 2.04574 21.7985 37.9817
2 1.45459 21.0008 38.4982
1 1.58734 22.306 36.7203
1 2.33044 23.4222 36.1847
2 1.97473 23.9181 35.2044
1 0.335687 21.8685 36.0296
1 0.892618 33.8326 20.8448
1 2.05157 33.2521 20.1614
1 2.71415 33.923 19.1311
2 2.34148 34.8869 18.923
1 3.72894 33.3313 18.4863
2 4.29377 33.9105 17.8576
1 4.29646 32.1828 18.9925
2 5.19249 31.8311 18.5167
1 3.58253 31.4144 19.9771
1 2.47832 31.9684 20.6719
2 1.8579 31.4084 21.3366
1 4.2294 30.2042 20.5795
1 56.0586 36.0813 23.5994
1 55.2901 36.7231 24.7179
1 55.6364 38.0021 25.2225
2 56.4159 38.6896 24.759
1 54.8121 38.5623 26.2629
2 55.0548 39.5592 26.6532
1 53.8081 37.7852 26.8422
2 53.3654 38.2065 27.7365
1 53.4466 36.5797 26.3674
1 54.2467 36.0168 25.3496
2 54.0418 35.0291 25.0747
1 52.3468 35.7823 26.9614
1 49.4165 33.3792 30.364
1 48.7807 32.8516 31.5711
1 47.5685 33.4471 32.0648
2 47.1025 34.3136 31.6552
1 46.9341 32.9168 33.1763
2 46.0995 33.3742 33.6075
1 47.3961 31.7443 33.7715
2 46.9698 31.5436 34.7596
1 48.5504 31.1127 33.2553
1 49.2724 31.6908 32.2145
2 50.1237 31.1653 31.8991
1 49.1788 29.9744 33.9834
3 -0.0127388 34.6199 33.5308
3 0.444495 35.3888 35.5694
3 -0.305662 32.2592 35.4638
3 0.125948 34.1124 36.6697
3 55.4114 32.8567 34.8022
3 56.1539 33.5664 36.7768
3 55.4327 34.0783 33.7133
3 56.213 35.9957 34.4405
3 5.30937 32.8337 26.7274
3 7.33431 33.5776 27.4909
3 5.75335 31.679 29.4615
3 6.96202 33.3457 30.2312
3 3.66405 34.3774 30.1245
3 5.73887 34.8391 30.7812
3 4.06879 33.8913 26.8977
3 4.84876 35.632 27.9672
3 4.85967 25.4944 33.7963
3 6.79335 25.9962 34.6815
3 3.68408 25.4495 34.9912
3 4.93734 25.7325 36.7994
3 2.73768 28.1942 35.8408
3 4.69246 28.7894 36.5725
3 5.24868 28.5196 33.5114
3 7.09566 27.7831 34.4492
3 0.496485 33.3287 21.9544
3 0.203682 34.7413 20.3131
3 0.433167 34.4678 23.333
3 -0.285618 36.4877 22.7881
3 56.1264 34.835 23.568
3 56.8747 36.7008 22.8147
3 56.1986 32.7651 21.2175
3 55.6815 34.7404 20.5383
3 52.4209 34.5659 26.97
3 51.4483 36.2778 27.6634
3 51.9974 34.0771 29.9986
3 51.1674 36.0393 29.2566
3 50.6249 32.9299 30.101
3 48.8928 34.2369 29.6207
3 50.0317 32.2803 27.0812
3 49.5421 34.2984 26.2498
3 3.50049 27.1335 20.834
3 5.44593 26.4112 20.0649
3 5.90051 26.865 23.1456
3 6.79264 26.3265 21.1667
3 5.35369 29.7518 22.8701
3 7.29468 29.1174 22.1522
3 4.22272 29.9791 21.8013
3 4.99987 29.5182 19.8701
3 -1.16443 32.377 31.8949
3 2.81112 31.3913 28.8093
3 2.26464 27.5588 32.5871
3 57.0071 31.9397 24.1281
3 52.4403 31.2217 27.8005
3 3.15504 27.6594 24.1898
4 57.2667 33.2245 33.7933
4 57.2088 35.2467 35.9691
4 4.27221 32.9107 28.7404
4 6.60697 34.8803 28.8699
4 3.7261 27.303 34.2362
4 6.29442 27.3362 36.3122
4 -1.32493 33.3734 22.8059
4 -1.28269 35.8843 21.0066
4 51.5333 33.0352 28.2059
4 49.6052 35.3298 27.8855
4 4.39176 28.0548 22.5253
4 6.48815 28.2202 20.4526
2 2.14984 31.3555 29.4932
2 3.00506 30.6135 28.3264
2 53.2356 24.5401 29.1567
2 53.2642 24.846 27.5778
2 53.6762 27.8192 33.0476
2 52.5429 27.5011 31.9498
2 55.8494 24.567 32.767
2 57.1332 23.8502 31.9647
2 3.50555 27.2619 25.0299
2 2.25886 27.9691 24.2999
2 56.9273 24.6532 23.6535
2 -0.111193 24.501 23.5747
2 2.89764 24.6897 26.5296
2 2.30009 24.5305 28.0955
2 57.1509 32.1647 25.0628
2 56.3478 31.1759 24.1069
2 53.5342 27.6605 24.1371
2 54.4371 27.116 22.902
2 52.916 30.609 28.4436
2 52.3568 30.9108 26.8361
2 2.32256 26.7676 32.0147
2 1.44244 28.1726 32.6362
2 56.9048 31.8542 31.4162
2 -0.304838 32.269 31.4894
1 35.7538 55.5899 23.2306
1 36.5826 54.8549 24.188
1 38.0273 54.7842 24.0596
2 38.5695 55.3045 23.2261
1 38.8076 54.0576 25.0054
2 39.8512 53.9071 24.9073
1 38.1123 53.3482 25.9683
2 38.7942 52.8271 26.6339
1 36.741 53.222 26.012
1 35.9709 54.026 25.1355
2 34.8694 54.0195 25.2344
1 36.0637 52.2483 26.8892
1 33.7837 54.5791 20.3068
1 33.2598 53.2851 19.8123
1 34.0295 52.4477 18.988
2 34.9834 52.7287 18.5871
1 33.6158 51.143 18.798
2 34.3323 50.5239 18.3415
1 32.4196 50.7015 19.2987
2 32.1639 49.6307 19.0418
1 31.558 51.5852 20.0008
1 32.0189 52.8367 20.2569
2 31.475 53.5908 20.897
1 30.2569 51.1507 20.4335
1 33.2006 0.0123611 20.1454
1 32.4323 1.04548 19.3843
1 32.4611 0.998393 17.9079
2 33.1091 0.351788 17.4147
1 31.602 1.88777 17.2199
2 31.6402 1.88602 16.1215
1 30.8532 2.83623 17.9273
2 30.2173 3.50511 17.3766
1 30.7505 2.84235 19.3322
1 31.6725 1.99278 20.0141
2 31.6643 2.11409 21.112
1 29.9129 3.88362 20.0393
1 35.7608 0.200911 22.4433
1 36.4865 1.23482 23.2831
1 37.8105 1.544 22.9315
2 38.2981 1.02506 22.1431
1 38.553 2.50061 23.5815
2 39.6101 2.75404 23.276
1 37.9178 3.23977 24.614
2 38.5011 4.08124 25.1334
1 36.563 3.01033 24.9115
1 35.8984 1.96606 24.2726
2 34.8929 1.81749 24.5251
1 35.8653 3.7988 25.9667
1 33.5184 49.5441 30.4472
1 32.9261 48.9322 31.6652
1 33.1366 47.5798 31.9857
2 33.8544 47.0173 31.3322
1 32.6381 46.9994 33.094
2 32.9019 46.0013 33.4253
1 31.5957 47.6443 33.8123
2 31.1237 47.1292 34.609
1 31.1639 48.9284 33.4047
1 31.8614 49.5603 32.2821
2 31.4893 50.4948 32.0219
1 30.0814 49.6878 34.133
1 33.3841 49.0824 26.1631
1 32.6707 48.3373 25.09
1 33.3842 47.4236 24.3538
2 34.3686 47.1291 24.5093
1 32.7388 46.6941 23.3353
2 33.3008 45.8811 22.8152
1 31.4458 47.0691 22.9079
2 31.0216 46.6203 22.0412
1 30.8351 48.223 23.4262
1 31.4108 48.8113 24.5727
2 30.881 49.7161 25.0241
1 29.7292 48.8242 22.7059
1 35.8581 51.8601 29.9321
1 36.6849 52.7231 30.8366
1 38.0572 52.6798 30.8162
2 38.5001 51.9686 30.2313
1 38.8159 53.5384 31.6137
2 39.8703 53.4424 31.6524
1 38.1869 54.562 32.2691
2 38.7914 55.2672 32.7576
1 36.7806 54.6431 32.365
1 35.9893 53.7243 31.6067
2 34.9646 53.8776 31.6225
1 36.2073 55.7641 33.1815
1 26.5375 48.8329 23.1728
1 25.7092 48.0101 24.1042
1 25.121 46.8045 23.6428
2 25.5445 46.3451 22.7654
1 23.9693 46.3319 24.2363
2 23.4217 45.545 23.7254
1 23.3698 46.9869 25.3006
2 22.3885 46.6811 25.7211
1 23.9353 48.1744 25.8489
1 25.1265 48.6418 25.2767
2 25.7258 49.4189 25.741
1 23.2925 48.9112 26.9754
1 26.1355 51.677 20.3048
1 24.9423 52.4143 19.7084
1 24.463 52.0899 18.441
2 24.8706 51.2402 17.9131
1 23.543 52.8584 17.7956
2 23.2038 52.5251 16.7993
1 23.0371 54.0085 18.3784
2 22.4121 54.6673 17.8748
1 23.3308 54.2388 19.7482
1 24.3655 53.5216 20.3602
2 24.6979 53.7286 21.3503
1 22.6673 55.3243 20.4799
1 34.2074 55.4832 35.5453
1 33.5264 54.4017 36.3354
1 34.1458 53.8994 37.4663
2 35.1539 54.248 37.5964
1 33.4841 52.9331 38.2275
2 33.8642 52.6118 39.1434
1 32.277 52.4178 37.8597
2 31.8113 51.6952 38.4846
1 31.696 52.7802 36.6173
1 32.3205 53.8066 35.8781
2 31.9701 54.0294 34.8186
1 30.4392 52.2118 36.1856
1 36.5875 0.353327 32.8567
1 37.283 1.15487 31.8434
1 38.6931 1.2151 31.8046
2 39.3097 0.531177 32.3601
1 39.316 1.97864 30.8448
2 40.3701 2.04376 30.826
1 38.5801 2.74226 29.9206
2 39.0358 3.27569 29.1453
1 37.1564 2.78626 29.9956
1 36.5505 1.96938 30.9841
2 35.5205 2.04382 31.1362
1 36.324 3.69336 29.1563
1 33.7554 6.25299 25.5375
1 33.2435 6.76862 24.2273
1 33.7103 8.02574 23.7109
2 34.6011 8.5338 24.1137
1 33.1509 8.60643 22.5957
2 33.6231 9.53413 22.2278
1 32.117 7.97952 21.9416
2 31.6673 8.54486 21.1138
1 31.498 6.82491 22.4689
1 32.1428 6.14129 23.551
2 31.6224 5.2609 23.9813
1 30.2235 6.27144 21.8984
3 34.5343 55.8461 23.5502
3 36.2982 56.1237 22.1346
3 32.9853 55.4488 20.8113
3 34.9862 54.901 20.1506
3 33.2978 0.0858171 21.4069
3 33.9788 -0.727191 19.4862
3 34.4701 0.139058 22.443
3 36.4397 -0.683844 21.8001
3 33.3936 50.798 30.2249
3 34.3784 48.8792 29.7654
3 32.6639 49.5931 27.1381
3 34.6295 49.0865 26.2895
3 34.8202 52.2851 27.0385
3 36.7159 51.3658 27.532
3 34.5628 51.8454 29.8393
3 36.4986 50.9934 29.2779
3 27.3212 49.7037 23.6336
3 26.5475 48.5991 21.9601
3 26.3525 51.8787 21.5026
3 26.847 50.8618 19.593
3 29.5482 51.8712 21.1538
3 29.9256 49.9319 20.3285
3 28.9185 49.5587 23.3946
3 29.6187 48.7665 21.4373
3 33.7982 55.8056 34.383
3 34.8817 56.3157 36.2488
3 34.9522 55.9407 33.1555
3 36.9952 56.5176 33.8838
3 35.3438 0.253494 32.7678
3 37.225 -0.378161 33.7251
3 33.0966 0.0929984 35.3597
3 35.128 0.863289 35.6698
3 35.042 3.49037 29.1919
3 36.8611 4.55893 28.3649
3 34.5838 3.81606 26.1248
3 36.5706 4.53466 26.7243
3 33.3684 5.13748 26.0245
3 34.7042 6.87941 26.1144
3 32.8846 6.03149 29.0451
3 34.9187 6.61998 29.6619
3 27.2725 53.057 35.9407
3 26.5095 51.1284 36.6829
3 26.8266 50.4196 33.601
3 26.3902 49.9258 35.693
3 29.8943 50.9557 33.9671
3 29.3461 49.0468 34.9245
3 30.0686 52.2897 34.9161
3 29.7901 51.4773 36.9541
3 31.5469 56.5697 23.0927
3 31.7153 52.1813 27.8019
3 28.5356 52.8694 23.7229
3 32.4714 -0.539331 32.2101
3 32.0676 3.19365 28.7338
3 27.7877 53.1803 32.6261
4 33.3773 56.8662 22.1496
4 35.5332 56.8222 20.2567
4 33.4051 51.2187 28.1695
4 35.6065 49.4886 28.1303
4 28.1371 51.3195 22.5135
4 27.8694 49.2124 20.3396
4 33.8696 -0.871615 33.685
4 36.2209 -0.904214 35.5171
4 33.6241 4.40644 27.9947
4 35.9119 6.42634 27.7542
4 28.155 52.0482 34.3511
4 28.3277 49.998 36.4691
1 20.4974 0.925776 33.5022
1 19.8469 2.09375 32.8056
1 18.7526 2.75068 33.5064
2 18.2899 2.22656 34.3416
1 18.1192 3.85632 32.9411
2 17.3357 4.44339 33.5189
1 18.6659 4.52177 31.8857
2 18.1825 5.4254 31.5521
1 19.7432 3.91091 31.1558
1 20.3064 2.66406 31.6402
2 21.1351 2.11007 31.2178
1 20.3859 4.68411 30.0325
1 22.7701 1.01571 35.9484
1 23.5452 2.07211 36.66
1 23.2737 2.4629 37.9557
2 22.4019 2.01692 38.4144
1 24.07 3.36762 38.6419
2 23.83 3.59016 39.6994
1 24.915 4.17427 37.8964
2 25.4633 4.98254 38.4305
1 25.1958 3.89839 36.5406
1 24.5421 2.83717 35.9233
2 24.6469 2.77854 34.8839
1 26.2796 4.64332 35.8193
1 22.8337 55.8791 36.0604
1 23.5524 54.8329 36.8675
1 23.1996 54.594 38.217
2 22.3163 55.0484 38.6535
1 23.7992 53.58 38.9887
2 23.4039 53.2729 39.9335
1 24.8498 52.8305 38.3969
2 25.2716 52.0943 39.0234
1 25.3608 53.1548 37.1593
1 24.6652 54.127 36.3646
2 25.0052 54.4112 35.3893
1 26.4351 52.3849 36.5676
1 20.5931 55.4477 33.7603
1 20.0422 54.2208 33.2141
1 19.0253 53.5256 33.8654
2 18.7219 53.922 34.8734
1 18.4576 52.4211 33.3119
2 17.7075 51.9567 33.902
1 18.8027 51.9568 32.0411
2 18.3081 51.1081 31.5443
1 19.9041 52.5657 31.3601
1 20.4681 53.7097 31.9533
2 21.2555 54.203 31.4719
1 20.4927 51.9676 30.1591
1 22.6765 6.98058 26.0067
1 23.2957 7.47074 24.7589
1 22.6349 8.43604 24.0144
2 21.8355 8.93942 24.4192
1 23.0825 8.74584 22.7511
2 22.6203 9.46824 22.0899
1 24.2125 8.1424 22.2142
2 24.5417 8.50208 21.2
1 24.9603 7.28558 22.9962
1 24.4854 6.89488 24.2568
2 25.0841 6.2743 24.9241
1 26.1588 6.64089 22.4146
1 22.626 6.97077 30.0054