2784
 Atoms. Timestep: 0
1 41.852 17.7403 14.2122
1 40.2939 17.5832 14.1208
1 39.4401 18.5311 14.4911
2 39.7207 19.5431 14.485
1 38.096 18.2309 14.8308
2 37.4383 18.972 15.1753
1 37.6601 16.9334 14.8202
2 36.7007 16.6419 15.2775
1 38.4845 15.969 14.3259
1 39.839 16.2182 13.9694
2 40.4996 15.5396 13.5218
1 37.9696 14.6308 14.0997
1 44.5591 16.5163 17.0031
1 44.7418 15.6862 18.1797
1 44.7231 16.2713 19.4581
2 44.4702 17.301 19.6526
1 44.9037 15.5078 20.6338
2 44.9831 15.9285 21.6368
1 45.0594 14.1392 20.5188
2 45.1363 13.5329 21.4015
1 45.1026 13.5186 19.2093
1 44.9053 14.279 18.0408
2 44.8848 13.8569 17.0374
1 45.1266 12.0073 19.065
1 9.44097 18.0904 15.5318
1 10.8384 18.0693 15.971
1 11.2919 18.9894 16.9862
2 10.6262 19.6911 17.3846
1 12.5639 18.8809 17.5193
2 12.9613 19.5066 18.3023
1 13.4245 17.8291 17.1149
2 14.4543 17.8381 17.4147
1 12.9955 16.8983 16.1073
1 11.7076 17.0544 15.4988
2 11.4135 16.4613 14.7049
1 13.8869 15.8656 15.5045
1 45.5338 19.5574 13.1422
1 46.5164 20.2928 12.2492
1 9.69134 21.4365 12.6615
2 9.54866 21.9218 13.6271
1 10.7653 21.9183 11.9346
2 11.338 22.8229 12.2741
1 11.0839 21.3737 10.6371
2 11.8411 21.8174 9.99549
1 10.3333 20.2885 10.1934
1 9.37422 19.7702 11.0515
2 46.3075 18.8951 10.728
1 10.5682 19.5226 46.6698
1 36.577 10.1763 12.3462
1 35.924 46.5988 11.5805
1 34.5694 46.1714 11.7635
2 33.9236 46.5107 12.5615
1 33.9796 45.1236 10.9662
2 33.0591 44.6367 11.3217
1 34.8055 44.4951 10.0544
2 34.4775 43.5613 9.65397
1 36.1168 44.9092 9.79484
1 36.7279 45.8919 10.6291
2 37.8072 46.0402 10.6154
1 36.9621 44.1442 46.545
1 37.993 11.5509 16.2935
1 38.5818 11.1991 17.5937
1 37.8519 11.4325 18.8015
2 36.8884 11.973 18.7979
1 38.3431 11.0604 20.019
2 37.7686 11.2416 20.9051
1 39.6341 10.5586 20.0734
2 40.0351 10.307 21.0945
1 40.3921 10.1766 18.9445
1 39.8685 10.5837 17.7078
2 40.4057 10.2444 16.8731
1 41.8256 9.67916 19.0523
1 36.6006 13.4987 11.5969
1 36.4202 14.4554 10.4949
1 35.299 15.2805 10.4618
2 34.5822 15.2222 11.2561
1 35.0621 16.1124 9.35731
2 34.1645 16.7438 47.0454
1 35.9327 16.0227 46.0048
2 35.7613 16.6552 45.2052
1 37.0516 15.1796 46.0533
1 37.2531 14.4401 9.4201
2 38.1032 13.7706 9.37194
1 37.9319 15.0638 44.9088
1 43.3833 44.57 18.6471
1 42.8764 43.2797 18.3671
1 42.1649 42.5571 19.4048
2 42.0781 43.024 20.3144
1 41.7142 41.2651 19.1378
2 41.0446 40.8346 19.8924
1 41.9547 40.5893 17.9311
2 41.5132 39.5538 17.7633
1 42.6271 41.2968 16.8913
1 43.0915 42.6528 17.1295
2 43.7408 43.1219 16.3291
1 43.036 40.6021 15.6631
1 46.4078 45.2987 19.3545
1 9.92957 44.2651 19.3816
1 10.1464 43.6197 20.6272
2 9.71131 44.0355 21.5017
1 11.2916 42.9426 20.8308
2 11.5406 42.6044 21.8676
1 12.266 42.8366 19.8374
2 13.2399 42.3372 20.0676
1 12.0527 43.3859 18.5443
1 10.8288 44.1135 18.3674
2 10.6655 44.5313 17.4473
1 13.0009 43.0513 17.4417
1 38.6997 12.1074 42.294
1 38.1793 10.7991 41.9575
1 37.4477 10.7454 40.7742
2 37.4634 11.6004 40.1121
1 36.9699 9.48633 40.3396
2 36.4597 9.46469 39.4029
1 37.235 45.818 41.0747
2 36.9869 44.7921 40.7829
1 37.8203 45.9627 42.3723
1 38.3503 9.73366 42.8316
2 38.7754 9.89639 43.8421
1 38.0523 44.7928 43.3065
1 41.4224 16.5299 42.9089
1 42.3437 17.7198 43.0593
1 41.7772 19.011 43.0488
2 40.7161 19.1616 43.0884
1 42.5965 20.192 43.2621
2 42.1899 21.2017 43.1565
1 43.9441 19.9674 43.5981
2 44.6184 20.8635 43.8274
1 44.5056 18.6843 43.634
1 43.7456 17.548 43.3187
2 44.2111 16.5057 43.3559
1 45.885 18.5019 44.1184
1 12.8602 17.882 46.3133
1 14.0185 17.8823 9.42314
1 15.099 18.7313 46.9805
2 15.1245 19.5199 46.2694
1 16.1868 18.7582 10.0501
2 17.0565 19.47 9.94745
1 16.2584 17.7774 11.0868
2 17.1701 17.8186 11.6803
1 15.1583 16.8313 11.3315
1 14.0751 16.8875 10.4332
2 13.2401 16.1767 10.4371
1 15.2578 15.8764 12.4527
3 42.5659 16.6631 14.2497
3 42.353 18.8581 14.3774
3 45.005 16.117 15.8404
3 44.0318 17.6789 17.0939
3 46.3958 16.9758 15.1726
3 46.1991 19.105 15.712
3 45.1834 18.4113 12.7839
3 45.4776 19.9499 14.418
3 37.476 10.8532 11.8333
3 35.9366 10.5592 13.3854
3 38.5783 11.1914 15.2416
3 36.9424 12.2465 16.1833
3 38.8404 13.822 13.6712
3 36.7479 14.23 14.1962
3 37.5149 12.6346 11.5527
3 36.0202 13.6867 12.6857
3 43.3611 45.4174 17.6831
3 43.8133 44.9229 19.8178
3 46.3557 46.1795 18.4372
3 45.447 45.2107 20.1345
3 44.6444 11.5376 18.0059
3 45.2523 11.26 20.0818
3 42.5564 9.65184 17.9919
3 42.3554 9.461 20.183
3 39.6693 12.1837 43.0709
3 38.3639 13.2128 41.6575
3 39.1861 14.9522 45.0318
3 37.4072 15.0876 43.7742
3 41.8951 15.3311 42.8891
3 40.1735 16.6468 42.7944
3 41.6935 14.1682 41.9119
3 39.7213 14.0338 40.9205
3 46.1535 18.0455 45.2747
3 9.3297 18.8321 43.3633
3 9.86543 18.4777 46.4613
3 11.4407 19.968 45.7738
3 12.1302 16.8188 46.2244
3 12.6264 18.8774 45.5413
3 10.9173 16.711 43.0432
3 12.7338 17.8972 43.0477
3 40.0298 42.4996 43.4783
3 38.8212 40.7536 43.8378
3 39.3428 41.8232 46.6462
3 38.295 40.526 45.2382
3 38.0498 44.631 46.131
3 36.5604 43.0429 46.0761
3 38.6397 44.9215 44.4201
3 37.5667 43.6849 43.0288
3 44.8053 15.2333 12.5433
3 40.6285 11.2268 12.7782
3 45.2069 9.57947 15.4869
3 41.8624 13.252 45.2839
3 9.75439 14.8953 45.4441
3 41.4775 44.1392 45.9178
4 44.5734 16.8154 13.9293
4 43.955 19.1683 15.6246
4 38.6488 11.7963 13.1583
4 36.0711 12.3534 14.395
4 44.6731 9.58879 17.5971
4 44.3492 9.39329 20.6302
4 40.6693 13.9461 43.8118
4 38.6755 15.365 42.1168
4 10.4433 16.8878 45.0418
4 11.3768 19.3975 43.8273
4 39.6548 43.4043 45.3248
4 37.1828 42.0485 44.3628
1 12.1054 40.4016 42.5156
1 13.5371 40.694 42.5357
1 14.3806 39.9296 41.7949
2 14.0312 39.0739 41.1589
1 15.6924 40.2896 41.6613
2 16.2859 39.6469 41.0102
1 16.2398 41.3457 42.3712
2 17.2585 41.5193 42.2497
1 15.3696 42.093 43.23
1 14.0183 41.8231 43.2741
2 13.4218 42.4134 43.8564
1 15.7899 43.3524 43.7763
1 10.1018 41.4448 40.291
1 10.0774 42.2717 39.0463
1 10.5563 41.7344 37.8305
2 10.8618 40.6888 37.7479
1 10.8048 42.5504 36.7287
2 11.0841 42.0979 35.7726
1 10.3856 43.9105 36.7953
2 10.6432 44.5923 35.981
1 9.80803 44.4671 37.9475
1 9.74337 43.6696 39.1229
2 9.38121 44.1316 39.9963
1 9.65588 45.9358 38.0745
1 44.4557 39.8315 42.0089
1 42.9581 39.7725 41.7127
1 42.4355 39.0068 40.6429
2 43.0287 38.3844 40.0401
1 41.0782 39.0135 40.4501
2 40.7423 38.4466 39.5193
1 40.146 39.7901 41.1771
2 39.0821 39.845 40.9949
1 40.6465 40.5452 42.3059
1 42.0617 40.4631 42.5898
2 42.4701 41.0279 43.4508
1 39.7451 41.2892 43.2237
1 46.4635 38.794 44.6158
1 46.3459 38.0127 45.8371
1 9.62758 36.7675 45.9998
2 10.2728 36.3371 45.2693
1 9.45015 36.0022 9.36188
2 10.0011 35.1233 9.52709
1 46.0803 36.4235 10.3847
2 45.8811 35.7795 11.2113
1 45.4872 37.6865 10.3187
1 45.5531 38.4525 46.8621
2 45.0595 39.4067 46.8668
1 44.8181 38.1701 11.5259
1 17.2847 10.2856 45.9628
1 17.4976 11.5972 46.6538
1 17.8349 12.7028 45.9025
2 18.0155 12.5961 44.8152
1 17.9711 13.9808 46.5077
2 18.2158 14.9072 45.9845
1 17.7564 14.1494 10.1166
2 17.7965 15.0852 10.5972
1 17.2869 13.132 10.8557
1 17.108 11.8445 10.2102
2 16.573 11.0713 10.7258
1 16.7182 13.2166 12.1577
1 16.0231 45.9472 42.0398
1 15.3904 45.972 40.7286
1 15.8847 45.1847 39.6733
2 16.7661 44.5898 39.9108
1 15.1575 45.1392 38.5064
2 15.4756 44.4636 37.7213
1 14.026 45.9044 38.3489
2 13.4961 45.7366 37.4169
1 13.6415 9.26355 39.3585
1 14.2497 9.26677 40.5722
2 13.7626 9.83669 41.4198
1 12.3317 9.89389 39.2299
1 17.3387 44.0484 46.6064
1 17.6515 43.2281 9.94835
1 18.78 42.3972 9.92867
2 19.3915 42.267 46.7873
1 18.9724 41.4736 10.891
2 19.7063 40.7443 10.9544
1 18.1223 41.4809 12.008
2 18.2829 40.7595 12.8291
1 17.0945 42.384 12.1584
1 16.8535 43.3066 11.1086
2 16.0265 44.1133 11.131
1 16.2801 42.3464 13.4462
1 11.6752 12.9856 39.5792
1 12.5349 14.0652 40.1828
1 13.8722 14.1885 39.8805
2 14.3187 13.4022 39.2392
1 14.6436 15.1262 40.5147
2 15.6596 15.1862 40.3268
1 14.1067 16.0736 41.356
2 14.7822 16.7721 41.8963
1 12.6948 15.9541 41.6936
1 11.9642 14.9494 41.1298
2 10.8986 14.8587 41.2475
1 12.0837 16.9339 42.569
1 45.1499 11.9358 38.7971
1 43.7521 12.3167 38.657
1 43.002 11.9924 37.5458
2 43.5574 11.4997 36.7305
1 41.6541 12.425 37.4117
2 41.1808 12.1171 36.5415
1 40.9222 12.8688 38.5418
2 39.8873 13.1098 38.4642
1 41.6992 13.1989 39.7388
1 43.0578 12.874 39.7647
2 43.5954 13.0968 40.6642
1 40.9868 13.7934 40.9335
1 15.5916 44.6895 16.4123
1 16.1731 45.9572 16.899
1 17.3186 46.0513 17.7757
2 17.6947 45.2094 18.2949
1 17.7263 9.83872 18.2575
2 18.4631 9.93095 19.0246
1 17.2579 10.9771 17.6847
2 17.6791 11.8392 18.0741
1 16.2479 10.935 16.7257
1 15.5735 9.66661 16.4978
2 14.5515 9.59827 16.0122
1 15.9128 12.1468 16.0055
1 13.0441 40.2029 15.9448
1 11.9386 39.2658 16.367
1 12.0797 38.5261 17.567
2 12.9899 38.5917 18.1361
1 10.8932 38.0062 18.1229
2 10.7884 37.5831 19.1486
1 9.70104 38.2778 17.4658
2 46.3337 37.9692 17.9409
1 9.58924 38.8111 16.1798
1 10.7245 39.3351 15.6278
2 10.7288 39.7397 14.6991
1 45.8559 38.8126 15.3192
1 41.5795 38.9256 12.3155
1 40.4479 38.6846 11.374
1 39.7973 37.4799 11.2944
2 40.0406 36.6745 11.9286
1 38.7885 37.2621 10.306
2 38.3315 36.3056 10.2206
1 38.4184 38.3257 9.38467
2 37.7231 38.1375 46.3676
1 39.0794 39.5655 9.47189
1 40.094 39.6726 10.479
2 40.5561 40.6394 10.5695
1 38.9258 40.6696 46.2817
3 11.3391 40.7294 43.4791
3 11.6375 39.7288 41.5313
3 9.40482 41.896 41.2854
3 10.6365 40.3397 40.2866
3 44.9284 40.3956 43.0876
3 45.27 39.2591 41.2571
3 45.7542 39.7942 44.4359
3 9.83863 38.4282 43.7917
3 16.5266 9.43676 46.5337
3 17.6803 10.0184 44.8456
3 15.3786 46.4552 43.0414
3 17.1098 45.358 42.2487
3 15.1968 43.8506 44.8008
3 16.9706 43.8375 43.4492
3 16.1529 44.4603 46.4595
3 18.216 44.3576 45.7689
3 11.3038 12.068 40.4153
3 11.2845 12.9338 38.3639
3 45.7025 11.9646 39.9176
3 45.8102 11.5393 37.8021
3 9.27145 46.4627 39.2122
3 10.3699 46.6757 37.3412
3 11.6858 10.3639 40.2377
3 11.7881 9.94013 38.0599
3 14.4506 44.5983 15.7227
3 16.2488 43.6014 16.6499
3 15.3209 43.1302 13.5686
3 16.3843 41.3945 14.2933
3 12.8617 41.0036 15.019
3 13.9426 40.5289 16.7998
3 13.0408 43.7456 16.3819
3 13.8813 42.1361 17.5502
3 45.9395 39.3194 14.1514
3 44.6731 38.4697 15.7658
3 44.0885 39.2416 11.4761
3 44.919 37.6477 12.6798
3 42.613 39.5478 11.8569
3 41.674 38.195 13.3377
3 43.2121 41.2236 14.5995
3 43.2312 39.3201 15.6676
3 13.4099 14.9273 14.7763
3 15.1445 15.9971 15.6756
3 14.2234 15.213 12.7624
3 16.3863 15.7292 13.0517
3 15.5318 12.831 12.352
3 17.1377 14.1694 12.8786
3 14.842 12.1802 15.3773
3 16.7388 13.0791 15.7721
3 9.30344 42.9456 44.1922
3 13.7121 9.38466 45.9099
3 46.4347 10.1271 42.2784
3 12.265 43.4899 13.245
3 45.678 41.7524 12.4009
3 12.5065 11.9657 13.2502
4 9.35751 41.1746 43.3447
4 9.85493 38.8067 41.7139
4 15.3434 45.8826 45.1407
4 18.0476 45.6139 44.1062
4 9.60277 10.6776 40.4265
4 10.239 11.3374 37.5398
4 13.6375 42.9687 14.5822
4 15.7768 41.6049 16.3429
4 44.3376 40.2769 13.165
4 43.4474 37.7778 14.194
4 14.1992 13.2255 13.8051
4 16.6991 14.8618 14.8824
2 13.4928 10.3096 45.9192
2 13.0296 46.2787 46.3492
2 41.3218 11.4174 13.5023
2 40.8792 10.906 11.8973
2 42.3344 43.7731 45.5694
2 41.4014 44.6368 46.7125
2 42.2064 13.8152 46.0299
2 42.242 12.3898 45.18
2 12.3084 11.0618 13.5167
2 11.8876 12.5577 12.7172
2 45.3732 14.4127 12.6464
2 44.1497 15.2139 11.7427
2 9.64372 14.2152 44.8182
2 9.42476 14.761 46.324
2 12.1923 43.0959 12.3868
2 11.9613 44.3773 13.3323
2 44.5936 9.62588 14.7154
2 46.125 9.75821 15.3838
2 46.4327 41.3841 11.9294
2 45.5157 42.7112 12.434
2 45.8065 9.43014 42.1917
2 46.543 10.6913 43.071
2 46.4775 42.8839 45.0864
2 9.83663 43.6978 43.9202
1 44.0759 18.9864 27.5327
1 43.3692 18.8735 28.7882
1 43.0747 17.617 29.3611
2 43.4984 16.7219 29.0031
1 42.3113 17.4875 30.5292
2 42.1278 16.48 30.9093
1 41.8301 18.6682 31.1413
2 41.3194 18.6862 32.0592
1 42.1793 19.9824 30.6341
1 43.0426 20.0596 29.4963
2 43.2277 21.0545 29.033
1 41.7121 21.2387 31.1833
1 43.2392 20.1005 24.6505
1 41.9622 20.7909 24.1446
1 40.7933 20.1077 24.0539
2 40.7737 18.9778 24.0131
1 39.6263 20.7786 23.6912
2 38.6292 20.2428 23.7437
1 39.61 22.1461 23.4464
2 38.6841 22.686 23.227
1 40.8172 22.8732 23.6963
1 42.0087 22.2363 24.0377
2 43.0051 22.7194 24.1028
1 40.8278 24.3402 23.5701
1 45.7918 19.7294 22.8886
1 46.0508 20.1817 21.4858
1 45.0545 19.9196 20.5331
2 44.1314 19.4216 20.825
1 45.1671 20.4112 19.2369
2 44.4071 20.0367 18.5578
1 46.2949 21.0107 18.864
2 46.3456 21.3493 17.805
1 9.86437 21.1487 19.7326
1 9.77078 20.6716 21.0529
2 10.5913 20.7949 21.7109
1 10.8952 22.0909 19.3598
1 10.2073 17.7182 25.6076
1 11.6442 17.1435 25.636
1 11.9707 15.9155 25.0065
2 11.147 15.3333 24.5779
1 13.2697 15.5377 24.8683
2 13.5191 14.5979 24.2663
1 14.319 16.2629 25.4366
2 15.323 15.9448 25.4564
1 13.9847 17.5252 26.0422
1 12.6691 17.9852 26.0441
2 12.4342 18.8738 26.6075
1 15.0258 18.4144 26.5948
1 40.544 25.296 33.9525
1 40.7703 26.3471 35.0038
1 40.1872 26.276 36.3047
2 39.3728 25.5266 36.4744
1 40.277 27.3711 37.1733
2 39.621 27.3596 38.0886
1 41.3133 28.2877 36.984
2 41.5665 28.9915 37.7867
1 42.1675 28.1995 35.8163
1 41.8228 27.2944 34.8311
2 42.4305 27.1497 33.8885
1 43.3824 29.1117 35.6042
1 39.4507 24.4578 29.841
1 38.7466 25.2428 28.8285
1 37.4188 25.712 28.9937
2 36.8916 25.4033 29.9237
1 36.7461 26.4307 27.9447
2 35.6959 26.8795 27.9524
1 37.4655 26.8148 26.8225
2 36.9408 27.4585 26.0697
1 38.7841 26.3719 26.6623
1 39.3808 25.5163 27.5639
2 40.354 25.1013 27.3957
1 39.6004 26.7435 25.4202
1 42.5643 23.0265 33.6937
1 43.4758 22.9697 34.8068
1 43.0279 22.8726 36.1392
2 42.0207 22.9194 36.3706
1 43.8861 22.8069 37.232
2 43.4681 22.6793 38.2397
1 45.2901 22.7838 36.9574
2 45.953 22.8709 37.866
1 45.7315 22.7322 35.6602
1 44.8107 22.6871 34.6444
2 45.1841 22.6933 33.6425
1 9.70235 22.636 35.3638
1 40.4199 29.3541 24.1811
1 40.0782 30.648 24.7721
1 38.7209 30.8865 24.9904
2 38.0207 30.0697 24.9864
1 38.3068 32.0924 25.5242
2 37.3236 32.2055 25.9738
1 39.3189 33.0024 25.9222
2 38.9714 33.7593 26.5399
1 40.7016 32.8149 25.579
1 41.0134 31.5653 24.9699
2 42.0305 31.3572 24.7157
1 41.68 33.7695 25.9809
1 42.0195 27.5503 20.8354
1 42.755 28.1488 19.6714
1 42.2229 27.9999 18.3436
2 41.344 27.3589 18.1593
1 42.8047 28.6741 17.2638
2 42.3681 28.5272 16.2579
1 43.8881 29.5022 17.4562
2 44.4489 29.9739 16.7068
1 44.4445 29.6504 18.7022
1 43.822 28.992 19.8386
2 44.0527 29.2483 20.923
1 45.5313 30.6169 19.1494
1 11.8769 24.5874 36.5507
1 11.2481 25.6783 37.3045
1 10.9708 25.5785 38.7126
2 11.3503 24.5981 39.1894
1 10.3124 26.5912 39.3865
2 10.0627 26.5182 40.469
1 9.79873 27.6573 38.6839
2 46.6646 28.3902 39.1483
1 9.89664 27.7102 37.2785
1 10.7247 26.7925 36.5998
2 11.0019 27.0577 35.5664
1 46.6219 28.7987 36.493
1 13.1911 20.8755 33.401
1 13.6739 19.8436 32.5274
1 13.4217 18.4911 32.8333
2 12.8301 18.1706 33.7198
1 13.8156 17.491 31.9203
2 13.7281 16.4387 32.0085
1 14.5022 17.7827 30.7449
2 14.7874 16.9641 30.0466
1 14.6796 19.161 30.4638
1 14.2502 20.1961 31.2922
2 14.2835 21.1701 30.9552
1 15.4105 19.6167 29.2332
1 16.7957 20.5143 24.5948
1 16.7555 20.4678 23.1291
1 17.9293 20.0754 22.3784
2 18.817 19.5435 22.8481
1 17.8489 20.0608 20.9928
2 18.4681 19.3715 20.4027
1 16.7982 20.6919 20.3055
2 16.7756 20.7455 19.2681
1 15.7799 21.2651 21.0702
1 15.7377 21.1146 22.4299
2 14.9382 21.6031 23.0096
1 14.8173 22.0649 20.3431
3 44.402 20.1024 27.001
3 44.3814 17.8705 26.9706
3 44.0712 20.6383 25.4394
3 43.5006 18.9541 24.1961
3 46.4753 20.3008 23.7407
3 44.9702 18.7671 23.1354
3 9.87232 18.589 26.5103
3 9.38741 17.3056 24.7117
3 41.0364 25.5555 32.7815
3 40.0757 24.1156 34.1481
3 40.6225 24.067 29.5642
3 39.0735 24.3747 31.0348
3 42.4573 22.2914 31.0819
3 40.5853 21.2713 31.7817
3 43.0139 23.0803 32.4417
3 41.2518 22.95 33.9245
3 41.5651 28.857 24.2935
3 39.4378 28.6945 23.6693
3 42.7187 27.2255 21.873
3 40.7689 27.7006 21.0147
3 41.6202 25.0542 24.2964
3 39.952 24.9248 22.7971
3 40.8127 26.2924 25.3106
3 38.9081 27.2251 24.4562
3 12.3217 24.8004 35.4245
3 11.7279 23.417 36.989
3 10.1962 22.991 34.2409
3 10.5112 22.428 36.3255
3 13.5978 22.0468 33.1955
3 12.3088 20.6395 34.2466
3 13.9589 23.7235 34.9917
3 14.1441 22.3898 36.6669
3 15.2094 20.7552 28.7626
3 16.3314 18.9239 28.6966
3 14.9018 19.685 26.3753
3 16.0187 17.9705 27.1793
3 15.7006 20.7108 25.2713
3 17.7705 20.0538 25.2321
3 17.8965 22.0999 27.4201
3 18.8304 20.3596 28.3787
3 46.6685 31.9284 33.7594
3 9.58699 31.8288 35.935
3 45.1683 31.9729 33.421
3 43.8063 32.2692 35.071
3 43.8388 29.3128 34.4146
3 43.9318 29.5454 36.6384
3 9.46747 29.0127 35.3241
3 45.6372 29.3864 37.0588
3 10.1435 21.4961 26.3856
3 42.7321 25.6747 30.0247
3 44.2818 27.0451 24.5914
3 12.0296 24.6955 32.0599
3 14.9901 23.3896 26.8253
3 46.3628 28.5989 32.5953
4 46.1803 20.0696 25.7353
4 44.8109 17.5081 24.9029
4 41.7302 24.3182 31.2711
4 39.839 22.9695 32.4289
4 42.311 27.0974 23.8953
4 39.5742 26.9249 22.3779
4 12.2433 23.5042 33.8361
4 12.3742 21.5215 36.1184
4 15.8845 21.5331 27.0595
4 17.7275 19.302 27.1124
4 45.8007 29.9295 33.9282
4 45.1335 31.3077 36.4721
1 16.5834 34.8944 27.7153
1 17.6796 34.6154 26.8096
1 18.7896 35.5279 26.7092
2 18.7848 36.3714 27.3638
1 19.7747 35.3641 25.7588
2 20.4444 36.1388 25.5799
1 19.7015 34.3215 24.9046
2 20.4418 34.2366 24.1623
1 18.8243 33.2457 25.0737
1 17.7762 33.4318 26.0136
2 17.092 32.5958 26.2003
1 18.764 32.0191 24.2291
1 16.2459 34.2291 31.1118
1 16.971 33.5432 32.2016
1 17.2951 34.2049 33.4077
2 17.055 35.2807 33.565
1 17.7792 33.474 34.4946
2 18.0834 34.0814 35.3207
1 18.1552 32.1684 34.3657
2 18.639 31.6138 35.1167
1 17.9771 31.5055 33.0979
1 17.2463 32.1445 32.061
2 16.8746 31.5644 31.2663
1 18.4583 30.1518 32.8549
1 13.1937 34.3919 31.5947
1 12.585 34.2202 32.9844
1 12.8176 35.2058 33.9206
2 13.483 35.9454 33.6434
1 12.3222 35.1784 35.2123
2 12.6529 35.8854 35.9108
1 11.5296 34.0576 35.4829
2 11.1046 34.0543 36.5586
1 11.089 33.2143 34.4768
1 11.6553 33.2414 33.2669
2 11.4715 32.4006 32.6003
1 9.94849 32.2345 34.7566
1 12.8772 37.2258 28.6406
1 11.7613 37.8152 27.8952
1 11.6207 39.2193 27.6331
2 12.3862 39.8854 27.9805
1 10.431 39.7347 27.1049
2 10.3649 40.8015 27.0415
1 9.41767 38.8649 26.7897
2 46.0326 39.3446 26.4855
1 9.48452 37.4881 26.9099
1 10.7081 36.9316 27.4837
2 10.6785 35.934 27.6483
1 45.7098 36.6555 26.9853
1 18.6935 27.9979 21.1329
1 18.2928 27.0509 20.0015
1 19.1767 26.927 18.8676
2 19.9845 27.5605 18.7872
1 18.8394 26.0198 17.9161
2 19.4699 25.7841 17.0554
1 17.5949 25.3516 17.9173
2 17.2739 24.7688 17.0643
1 16.8037 25.4749 19.0413
1 17.0928 26.4664 20.026
2 16.3158 26.5566 20.8465
1 15.4301 24.7782 19.0651
1 19.8382 29.1065 25.2933
1 20.567 28.7442 26.5123
1 21.7532 28.0025 26.4266
2 22.1769 27.6193 25.5402
1 22.527 27.76 27.564
2 23.5396 27.2649 27.5002
1 22.0342 28.035 28.8134
2 22.7427 27.8169 29.6532
1 20.7776 28.5818 28.9775
1 20.0611 28.9874 27.8613
2 19.1457 29.4746 28.1047
1 20.185 28.5355 30.2903
1 16.9289 31.4102 21.7457
1 16.1251 32.3893 20.9794
1 16.7232 33.3909 20.1987
2 17.7829 33.4033 20.0557
1 15.9303 34.1933 19.3393
2 16.3173 34.9958 18.7304
1 14.5075 34.1274 19.4048
2 13.8578 34.7594 18.8003
1 13.971 32.9905 20.1186
1 14.7369 32.215 20.9104
2 14.2627 31.5298 21.5054
1 12.5122 32.7232 20.0327
1 19.5763 25.633 31.0224
1 20.0832 24.5265 30.1478
1 21.4562 24.4863 29.7374
2 22.0952 25.3168 29.9182
1 21.9147 23.3225 29.0856
2 22.847 23.187 28.6782
1 21.0092 22.2431 28.8151
2 21.505 21.3164 28.6263
1 19.6207 22.4477 28.9301
1 19.1856 23.553 29.6147
2 18.0937 23.7471 29.7159
1 18.6686 21.612 28.3527
1 18.355 26.2796 34.6596
1 17.7963 25.4804 35.6984
1 18.6105 24.9229 36.7112
2 19.6971 25.3233 36.766
1 18.1104 23.9594 37.5759
2 18.7965 23.5814 38.3633
1 16.8088 23.4026 37.3916
2 16.6119 22.6351 38.077
1 15.9428 23.9122 36.3431
1 16.4785 24.9884 35.519
2 15.8423 25.369 34.7584
1 14.6152 23.3714 36.0323
1 10.8993 30.509 18.0671
1 11.5959 29.4377 17.2376
1 11.9308 29.6564 15.8502
2 11.6522 30.6329 15.4025
1 12.5127 28.6036 15.1551
2 12.7791 28.6063 14.1304
1 12.8002 27.3596 15.788
2 13.2595 26.5421 15.1693
1 12.5005 27.1786 17.1166
1 11.8752 28.1933 17.7895
2 11.611 28.1204 18.7872
1 12.6956 25.847 17.7409
1 45.8262 34.2735 20.4085
1 44.9653 35.2215 21.0423
1 44.4072 36.3484 20.3797
2 44.5428 36.4256 19.2861
1 43.5653 37.2669 21.0971
2 43.1293 38.1006 20.5123
1 43.4762 37.1633 22.4944
2 43.2393 38.0499 23.0941
1 44.0132 36.1039 23.1258
1 44.6201 35.0584 22.3869
2 44.9974 34.194 22.8568
1 43.8157 35.8826 24.6252
1 43.2912 35.2399 29.7312
1 43.3095 35.1701 31.1949
1 43.0881 36.2602 32.0069
2 42.9129 37.2145 31.6194
1 42.9464 36.1675 33.4018
2 42.6351 37.0779 33.9826
1 43.2964 34.9749 34.0428
2 43.3653 34.9828 35.0939
1 43.6533 33.8209 33.2334
1 43.5801 33.9304 31.8482
2 43.6907 32.952 31.2782
1 44.1413 32.5641 33.882
3 16.0927 33.9235 28.3446
3 16.1427 36.0526 27.9874
3 16.0746 33.7206 29.9488
3 15.5858 35.2909 31.3887
3 12.9846 33.5429 30.6912
3 13.8742 35.4181 31.2931
3 13.1239 35.9408 28.5431
3 13.6768 37.9912 29.2132
3 18.0529 27.8745 22.2763
3 19.2925 29.0487 20.8921
3 18.692 29.5153 25.365
3 20.3766 29.1267 24.1856
3 18.1143 31.0046 24.7155
3 19.2133 31.9878 23.0665
3 16.3562 30.8183 22.6883
3 18.2063 31.294 21.6083
3 18.3323 25.8328 31.0965
3 20.4048 26.3181 31.6958
3 17.5671 26.7962 33.8036
3 19.6436 26.3478 34.5594
3 18.198 29.5782 31.7143
3 18.9557 29.5005 33.793
3 18.9153 28.834 30.4882
3 20.8288 27.959 31.217
3 11.0677 30.5664 19.3483
3 10.1415 31.3283 17.5491
3 12.0163 31.5627 20.44
3 11.732 33.493 19.4004
3 46.5694 33.5514 21.1517
3 45.7666 34.0684 19.1586
3 46.0544 30.6003 20.3
3 46.0063 31.439 18.29
3 43.8505 34.7014 25.1242
3 43.498 36.8117 25.357
3 45.7829 35.4471 27.2429
3 44.6059 37.1777 26.7141
3 43.2868 34.2052 29.0649
3 43.449 36.3363 29.1772
3 42.8721 33.5775 25.5987
3 41.4749 34.694 26.8216
3 11.3421 22.7812 20.3504
3 11.407 22.1944 18.1934
3 14.3635 23.0899 20.9234
3 14.5101 21.8086 19.1305
3 14.9146 24.5428 20.2507
3 14.8666 24.3667 18.035
3 12.2163 25.6451 18.9179
3 13.4355 24.9246 17.1348
3 13.2341 32.8533 27.4598
3 15.9369 28.0841 24.6068
3 15.6214 27.7147 31.9094
3 9.76291 31.1242 22.8076
3 45.4933 32.7537 27.7077
3 12.2696 25.5408 22.0732
4 14.0572 34.0356 28.9685
4 15.1189 36.6087 29.7791
4 17.4338 29.2913 23.6978
4 19.9333 30.1582 22.3789
4 17.6507 27.6595 31.8689
4 20.2655 27.8783 33.2637
4 9.93779 31.6909 20.888
4 9.95336 33.176 18.305
4 44.1949 34.1818 27.192
4 42.6723 36.4059 27.2852
4 12.7392 24.3266 20.4098
4 13.4822 22.8512 17.7491
2 16.2556 27.461 25.2692
2 15.1021 27.9413 24.1994
2 43.5931 25.5325 29.6109
2 42.2148 26.5072 29.9227
2 45.7855 27.786 32.5297
2 9.4213 28.9343 31.8367
2 11.4971 24.4682 31.2675
2 12.0789 25.6417 32.1064
2 12.8121 26.3022 22.3308
2 11.2959 25.5932 22.365
2 11.0922 21.4031 26.3689
2 9.75795 22.3563 26.7076
2 15.4499 23.8447 26.0371
2 14.2343 23.8095 27.3391
2 46.4433 30.9871 23.3013
2 10.6624 31.1452 23.209
2 44.8156 26.2638 24.4478
2 44.7111 27.8335 24.9739
2 45.4704 31.8239 27.4466
2 46.3358 33.065 28.1721
2 15.0458 28.0306 31.2752
2 15.2148 27.0862 32.4754
2 12.4886 32.2682 27.5652
2 13.4327 33.0692 26.512
1 32.9378 12.6596 30.4511
1 33.4246 12.0902 31.7374
1 34.4592 12.7451 32.4109
2 34.8922 13.677 32.0427
1 34.9597 12.178 33.6024
2 35.7403 12.6937 34.1221
1 34.2404 11.2467 34.2291
2 34.5695 10.8322 35.1623
1 33.0772 10.6803 33.6271
1 32.722 11.0486 32.33
2 31.8791 10.6046 31.7541
1 32.3216 9.52463 34.2796
1 33.1208 11.7292 27.1154
1 33.4387 10.4729 26.3306
1 34.7612 10.2203 25.9385
2 35.4176 11.0277 26.0331
1 35.1108 46.512 25.3141
2 36.1065 46.4284 24.82
1 34.182 45.4766 25.1498
2 34.5189 44.5237 24.6873
1 32.8663 45.6842 25.6525
1 32.5019 9.46777 26.1857
2 31.4833 9.58251 26.511
1 32.0397 44.4855 25.8629
1 30.7206 14.2568 26.0283
1 30.0848 14.706 24.7109
1 30.9067 15.3965 23.7564
2 31.8972 15.5985 23.9469
1 30.4316 15.689 22.5235
2 31.0482 16.1626 21.8111
1 28.9964 15.5309 22.3045
2 28.6761 16.051 21.458
1 28.1931 14.8068 23.2032
1 28.7804 14.2371 24.3377
2 28.1786 13.6783 25.1465
1 26.7545 14.5733 22.9288
1 31.3754 16.1309 28.9066
1 30.7184 17.384 29.2748
1 31.1087 18.6426 28.7148
2 32.0316 18.8122 28.204
1 30.5388 19.8269 29.0326
2 30.9286 20.8566 28.7817
1 29.2415 19.7872 29.605
2 28.6448 20.621 29.5768
1 28.6462 18.6032 29.9912
1 29.4206 17.4115 29.8495
2 29.0396 16.4271 30.2551
1 27.2763 18.477 30.4843
1 28.8078 44.5243 36.9184
1 27.6933 44.516 37.9886
1 28.0135 45.004 39.2063
2 28.9415 45.2941 39.6112
1 27.0571 44.938 40.1826
2 27.4464 45.3603 41.1585
1 25.8117 44.3818 39.9745
2 25.1829 44.2939 40.8527
1 25.4338 43.8908 38.7015
1 26.421 44.0046 37.7124
2 26.2498 43.6419 36.6837
1 24.1104 43.4247 38.4232
1 31.2611 42.967 33.3319
1 31.7903 42.0662 32.2935
1 32.6199 41.0049 32.7268
2 32.8515 40.8025 33.8108
1 33.0301 40.0275 31.792
2 33.4066 39.124 32.1743
1 32.6823 40.2593 30.4009
2 33.1518 39.5 29.8198
1 31.9089 41.3299 29.9845
1 31.4519 42.2146 30.9366
2 30.8159 43.0921 30.6465
1 31.658 41.6375 28.5505
1 30.2362 9.57246 36.4058
1 30.0158 10.6869 37.32
1 30.7808 10.8064 38.4622
2 31.7165 10.3462 38.6249
1 30.4277 11.7115 39.4836
2 31.1346 11.815 40.2766
1 29.2668 12.4576 39.3134
2 28.9285 13.143 40.1667
1 28.4208 12.2813 38.1742
1 28.8655 11.3545 37.2412
2 28.2596 11.2076 36.3735
1 27.0659 12.8489 38.1341
1 29.6787 39.9379 26.7691
1 28.9926 38.7371 27.1218
1 29.4496 37.4274 26.9068
2 30.2227 37.2639 26.2022
1 28.834 36.3211 27.4774
2 29.1424 35.2444 27.4127
1 27.6956 36.5256 28.1832
2 27.4263 35.5757 28.6975
1 27.0369 37.7831 28.3188
1 27.7219 38.8915 27.8313
2 27.3674 39.8505 28.1203
1 25.8385 37.9541 29.1469
1 29.5363 41.3241 23.8294
1 28.644 40.9063 22.716
1 29.0589 39.8768 21.8628
2 29.938 39.2552 21.9833
1 28.2402 39.4903 20.8178
2 28.5433 38.6711 20.1723
1 27.0116 40.0548 20.6182
2 26.3841 39.584 19.8502
1 26.6153 41.1357 21.4374
1 27.4237 41.5993 22.4532
2 27.1139 42.5262 22.8926
1 25.3003 41.6865 21.2143
1 23.0208 11.8925 39.864
1 21.871 11.0388 40.1734
1 20.6404 11.5295 40.6562
2 20.5164 12.6102 40.907
1 19.4882 10.7058 40.6121
2 18.5177 11.1648 40.6726
1 19.6171 9.36271 40.2275
2 18.7485 46.1169 40.1825
1 20.7902 46.3247 39.7722
1 21.983 9.69192 39.7883
2 22.9734 9.26456 39.3875
1 20.9989 44.9691 39.1757
1 24.4817 16.2605 38.197
1 24.6409 17.6485 37.5237
1 24.3299 18.8425 38.2779
2 24.0411 18.8687 39.3808
1 24.1932 20.0395 37.5268
2 23.9116 20.9 38.015
1 24.6472 20.1499 36.1571
2 24.8064 21.1043 35.6419
1 24.9482 19.0048 35.5407
1 25.0511 17.7893 36.1972
2 25.2454 16.8003 35.6645
1 25.0753 18.9649 34.0754
1 24.5517 18.1741 28.9222
1 24.1925 18.0868 27.4948
1 23.7285 19.2766 26.8302
2 23.3438 20.0628 27.3753
1 23.4763 19.2922 25.4978
2 23.1232 20.2146 25.0407
1 23.7693 18.1784 24.7472
2 23.5636 18.1664 23.7337
1 24.1194 16.969 25.3651
1 24.4143 16.9201 26.7601
2 24.7124 16.0318 27.2851
1 24.1619 15.7854 24.5285
3 32.1893 11.9737 29.7188
3 33.3631 13.802 30.0645
3 32.2436 11.7076 28.0872
3 33.7168 12.7758 26.7575
3 30.2131 13.3625 26.793
3 31.6999 14.9385 26.549
3 31.2933 15.1302 29.6594
3 31.8878 15.9509 27.8042
3 28.4294 44.4924 35.721
3 30.051 44.681 37.2103
3 30.2918 43.6791 33.0194
3 31.9132 43.1612 34.4082
3 31.0512 9.40915 33.9651
3 32.8346 46.1509 35.0292
3 29.9374 9.64796 35.129
3 30.8147 46.0653 36.8207
3 29.4233 41.0257 27.3992
3 30.499 39.9181 25.7879
3 29.2526 42.4485 24.4514
3 30.5373 40.543 24.2096
3 30.9961 44.5566 26.5519
3 32.452 43.3795 25.447
3 30.5568 42.2754 28.2051
3 32.3723 41.1481 27.6292
3 23.8426 11.5477 38.9771
3 22.8822 13.1216 40.0619
3 26.3705 12.6412 37.1016
3 26.4704 13.4088 39.1257
3 24.4571 15.1851 37.4746
3 24.7035 16.1511 39.4037
3 22.9222 14.0855 36.8347
3 22.5242 14.1713 38.9968
3 25.6975 18.0531 33.4903
3 24.4843 19.806 33.38
3 26.5902 17.3709 30.4854
3 26.7326 19.5474 30.8129
3 25.2268 17.2411 29.5659
3 24.058 19.1446 29.6255
3 22.8984 17.4867 31.6824
3 22.8064 19.388 30.6474
3 19.9871 42.1542 36.303
3 19.5362 42.3405 38.4778
3 21.4795 41.4941 36.0943
3 22.3911 40.7178 37.94
3 23.6484 43.3949 37.2043
3 23.2922 43.2548 39.3753
3 20.6117 44.7359 37.9459
3 21.8661 44.1272 39.7334
3 29.036 12.8929 29.7613
3 27.9529 45.3478 32.8514
3 27.8973 43.9817 26.6443
3 25.3077 11.6978 36.0458
3 25.5198 15.1226 32.308
3 22.23 44.5643 35.1465
4 30.9025 13.2941 28.7851
4 33.3097 14.441 28.0028
4 29.4814 45.2029 34.1304
4 31.8995 44.4949 35.981
4 29.7537 42.9501 26.4249
4 32.2055 41.2801 25.5837
4 24.5815 13.0639 37.6079
4 24.6008 14.2677 40.0013
4 25.0286 17.0559 31.7576
4 24.7953 19.9989 31.3511
4 21.6588 43.4264 36.7198
4 21.4855 42.1304 39.2452
1 13.4778 43.5987 29.6688
1 12.8199 44.2025 28.5511
1 11.4628 44.1981 28.2888
2 10.8147 43.7275 28.9919
1 10.9583 44.9465 27.2739
2 9.85516 45.0389 27.1667
1 11.7765 45.6997 26.3754
2 11.2749 46.2959 25.6499
1 13.1509 45.5947 26.512
1 13.6761 45.0297 27.7273
2 14.7963 45.0361 27.8785
1 14.0342 46.1339 25.4783
1 14.0727 44.5157 32.6464
1 13.5695 45.8216 33.035
1 12.2502 45.9362 33.4585
2 11.6479 45.0242 33.5071
1 11.7906 9.71793 33.816
2 10.7808 9.88833 34.2623
1 12.6366 10.8308 33.7786
2 12.1258 11.8564 33.7499
1 13.9361 10.7173 33.3517
1 14.4357 9.39931 33.0916
2 15.3605 46.6839 32.6192
1 14.8003 11.9075 33.175
1 15.4358 41.9702 33.9041
1 15.9389 41.6944 35.3274
1 15.085 41.2944 36.3295
2 14.001 41.1457 36.1268
1 15.5414 40.9902 37.6304
2 14.87 40.6775 38.3442
1 16.9103 41.2316 37.9638
2 17.2734 41.2014 38.9898
1 17.7688 41.6889 36.9354
1 17.2463 41.9698 35.6629
2 17.9029 42.4144 34.9986
1 19.1495 42.0575 37.2708
1 16.5017 40.8615 30.1681
1 17.3679 40.2551 29.1797
1 16.9121 39.6683 27.936
2 15.8371 39.7379 27.6957
1 17.8178 39.0606 27.0327
2 17.389 38.8748 25.9843
1 19.2133 38.8788 27.4219
2 19.8949 38.3897 26.7548
1 19.5802 39.3293 28.6436
1 18.7059 39.9392 29.5283
2 19.1081 40.1392 30.4475
1 20.9886 39.0327 29.0873
1 17.2745 11.4804 22.692
1 18.2231 12.1626 21.8209
1 17.7612 12.775 20.6742
2 16.7367 12.5904 20.317
1 18.7179 13.3338 19.8595
2 18.3163 13.7708 18.9921
1 20.0616 13.4404 20.1662
2 20.7522 14.0487 19.5008
1 20.5198 13.0784 21.4046
1 19.6026 12.3697 22.2502
2 19.866 12.2357 23.3395
1 21.9012 13.4272 21.7571
1 14.6969 12.0081 25.7456
1 14.1695 12.7721 26.9252
1 12.8929 13.2786 26.8241
2 12.3215 13.0541 25.974
1 12.4296 14.063 27.9172
2 11.4057 14.4033 27.8042
1 13.1931 14.4079 29.0145
2 12.7552 14.9343 29.8538