2256
 Atoms. Timestep: 0
1 44.1295 7.02178 4.44853
1 43.1872 7.82374 3.60224
1 43.0058 9.18382 3.84363
2 43.5486 9.70167 4.62771
1 42.0771 9.9256 3.09279
2 41.9182 10.9894 3.2727
1 41.3493 9.27512 2.11342
2 40.6824 9.88048 1.58739
1 41.5858 7.95531 1.77083
1 42.5518 7.22673 2.4823
2 42.7661 6.20565 2.26724
1 40.7525 7.31204 0.681408
1 44.0608 4.16793 7.51568
1 42.9265 3.50006 8.17644
1 42.428 4.0126 9.38508
2 42.8644 4.91806 9.80503
1 41.2299 3.48493 9.93443
2 40.7996 3.97144 10.8436
1 40.5003 2.48971 9.23694
2 39.5047 2.17321 9.55393
1 41.071 1.93466 8.05728
1 42.3181 2.36395 7.60163
2 42.7731 1.9285 6.68389
1 40.2905 0.940243 7.30089
1 0.706754 4.06209 7.54613
1 1.68099 3.22007 8.22479
1 1.89202 3.38407 9.59536
2 1.42019 4.22037 10.1136
1 2.81426 2.59857 10.2526
2 3.04609 2.6966 11.2807
1 3.56618 1.63474 9.55512
2 4.3197 1.03872 10.0988
1 3.36718 1.44593 8.17404
1 2.36682 2.20402 7.5191
2 2.20953 2.08149 6.45533
1 4.13229 0.424084 7.40225
1 1.77811 5.95661 5.18684
1 3.10343 6.32106 4.72254
1 3.91669 7.08714 5.57171
2 3.65569 7.29356 6.66025
1 5.18079 7.5287 5.10035
2 5.79511 8.17904 5.70343
1 5.53844 7.31495 3.7779
2 6.47335 7.70125 3.43624
1 4.73697 6.50086 2.94106
1 3.54779 5.98189 3.44713
2 2.96226 5.28728 2.84905
1 5.16268 6.12597 1.56629
1 38.357 5.30309 43.2544
1 38.0097 4.93564 41.8664
1 37.3009 5.84093 41.0423
2 36.973 6.80514 41.3934
1 36.8753 5.41811 39.7744
2 36.3366 6.12649 39.141
1 37.282 4.15711 39.2911
2 37.0622 3.88674 38.296
1 37.9634 3.27521 40.121
1 38.311 3.63546 41.4292
2 38.7694 2.85522 42.0728
1 38.3304 1.91341 39.5972
1 37.6967 4.48053 0.684617
1 36.8394 3.54971 1.48599
1 35.5027 3.47302 1.30208
2 35.0046 4.10035 0.568744
1 34.7178 2.60944 2.1164
2 33.6477 2.48658 1.9231
1 35.3499 1.77457 3.03999
2 34.7155 1.11303 3.65871
1 36.7392 1.81373 3.20252
1 37.4514 2.7384 2.45008
2 38.5109 2.78225 2.68278
1 37.4255 0.900082 4.15257
1 40.7025 7.32765 44.2643
1 41.5037 8.08946 43.3208
1 41.1665 9.40472 43.007
2 40.2988 9.91186 43.3995
1 41.9254 10.1348 42.0493
2 41.6202 11.1026 41.7171
1 42.9607 9.52552 41.3829
2 43.5012 10.0894 40.6521
1 43.2952 8.16967 41.6435
1 42.5642 7.4672 42.6252
2 42.79 6.4043 42.8452
1 44.3657 7.49257 40.8548
1 37.5463 44.063 4.27458
1 36.7881 43.1604 3.39469
1 35.3662 43.1622 3.43225
2 34.839 43.6995 4.23768
1 34.6243 42.3624 2.56584
2 33.5953 42.2179 2.73185
1 35.2446 41.5878 1.6149
2 34.653 40.9507 0.971259
1 36.6422 41.6073 1.51527
1 37.4215 42.3844 2.42248
2 38.53 42.4112 2.35433
1 37.3035 40.7804 0.493453
1 39.2249 43.3034 6.79491
1 39.7213 41.9769 7.33999
1 39.116 41.3659 8.41924
2 38.1348 41.6934 8.81995
1 39.7014 40.2615 9.05186
2 39.1919 39.8177 9.87177
1 40.8585 39.7283 8.51156
2 41.2129 38.8194 8.99087
1 41.4231 40.2984 7.36793
1 40.8148 41.3659 6.73237
2 41.3114 41.8066 5.88131
1 42.6418 39.7008 6.80918
1 44.1461 4.73346 37.7514
1 43.1956 3.94419 36.8981
1 42.9032 4.34874 35.5608
2 43.3903 5.19158 35.106
1 41.9572 3.64754 34.8149
2 41.7679 3.88305 33.8106
1 41.262 2.54441 35.3796
2 40.5608 1.99526 34.7528
1 41.4909 2.19686 36.7106
1 42.4746 2.88459 37.4692
2 42.6169 2.63435 38.5047
1 40.6423 1.18965 37.3522
1 1.15022 7.19517 40.6248
1 2.25695 7.8199 41.361
1 2.84719 8.98703 40.8754
2 2.55008 9.4221 39.9636
1 3.99621 9.48073 41.5089
2 4.4983 10.3265 41.0575
1 4.51143 8.83688 42.6391
2 5.40036 9.20383 43.0925
1 3.9297 7.66392 43.1506
1 2.79187 7.16138 42.5026
2 2.3811 6.20441 42.81
1 4.58028 6.93812 44.25
1 7.05825 3.76233 0.773922
1 7.74787 3.03946 1.89327
1 9.06883 3.41382 2.22051
2 9.55991 4.29054 1.79068
1 9.71824 2.74778 3.2727
2 10.6867 3.0509 3.56716
1 9.07462 1.78068 4.02305
2 9.59966 1.24212 4.7747
1 7.73544 1.43359 3.74826
1 7.08884 2.04629 2.63444
2 6.12136 1.71592 2.34551
1 7.03729 0.431137 4.50972
3 44.1416 5.74898 4.33445
3 44.9046 7.59239 5.25372
3 44.7319 3.53273 6.64931
3 44.2421 5.42316 7.66505
3 -0.071124 3.51688 6.71167
3 0.858836 5.34475 7.55879
3 1.06911 5.17123 4.49263
3 1.35074 6.39129 6.32931
3 38.9488 4.46153 43.9451
3 38.1871 6.47974 43.6869
3 38.9638 4.3381 0.740724
3 37.1659 5.32565 -0.139736
3 41.2065 6.32243 0.0162992
3 39.5378 7.70981 0.466429
3 41.2211 6.40259 44.965
3 39.4598 7.47961 44.253
3 38.8273 44.0053 4.3065
3 36.9327 44.9467 4.94303
3 39.7197 43.7233 5.67674
3 38.3505 43.9983 7.35826
3 40.9156 0.0772141 6.57975
3 39.0195 0.956711 7.33509
3 38.6727 0.805401 4.1417
3 36.7455 0.13185 4.9286
3 44.1748 4.57895 39.0155
3 44.9553 5.52985 37.1802
3 45.0933 6.60785 41.4142
3 44.4748 7.6931 39.6079
3 0.266847 6.50435 41.2485
3 1.10464 7.34432 39.365
3 1.05509 4.25949 39.4216
3 1.37796 6.07671 38.2068
3 3.88199 6.22949 45.0153
3 5.85491 6.88734 44.2669
3 4.79888 5.00119 1.08668
3 6.0371 6.86848 0.972816
3 5.7822 3.75979 0.69465
3 7.74864 4.49663 -0.00541196
3 5.88081 3.64118 44.1789
3 7.76648 4.4468 44.9995
3 39.9374 43.9285 38.9759
3 39.282 44.6617 36.9825
3 38.9352 44.1604 40.0974
3 37.1747 45.2954 39.4483
3 38.706 0.993614 40.3831
3 38.2836 1.68689 38.3357
3 41.1106 0.390485 38.2158
3 39.3866 1.29416 37.2319
3 45.0733 3.09008 3.42587
3 41.0982 3.01134 45.492
3 41.6276 -0.566444 3.60268
3 45.5191 3.23109 41.383
3 2.87114 3.28725 45.4358
3 41.532 -0.471259 41.2958
4 -0.82578 4.44711 4.95045
4 -0.704827 6.64483 6.92303
4 40.0513 4.77554 45.734
4 38.1123 6.98433 -0.874438
4 39.9726 -0.702746 4.90513
4 37.6099 -0.582371 6.79858
4 -0.6873 4.93518 40.2765
4 -0.57615 7.02023 38.1248
4 4.63337 4.44195 45.6648
4 7.04456 6.34521 -0.84081
4 40.0956 -0.49155 39.7994
4 38.058 -0.302594 37.6986
1 0.0943861 37.4425 40.5526
1 0.932832 36.5985 41.4764
1 1.02665 35.2054 41.282
2 0.521364 34.6899 40.4943
1 1.93276 34.455 42.0605
2 2.1124 33.3992 41.8449
1 2.70725 35.0728 43.0566
2 3.4181 34.5411 43.6491
1 2.56769 36.4528 43.2948
1 1.68463 37.2216 42.5116
2 1.58166 38.2466 42.7166
1 3.44263 37.1309 44.2899
1 0.751364 40.0356 37.3258
1 1.94316 40.6421 36.6938
1 2.49873 40.066 35.544
2 1.99999 39.2374 35.0538
1 3.74242 40.5173 35.0835
2 4.12441 40.0439 34.2155
1 4.37458 41.597 35.6862
2 5.29369 41.9361 35.2027
1 3.7565 42.2539 36.7511
1 2.49498 41.8583 37.226
2 2.05097 42.3394 38.1199
1 4.42013 43.3603 37.4654
1 43.1138 40.0123 37.7005
1 41.867 40.6182 37.1537
1 41.2727 40.1118 35.9649
2 41.5634 39.1387 35.6015
1 40.2125 40.786 35.3549
2 39.8029 40.3472 34.4966
1 39.7965 42.0382 35.8567
2 39.0331 42.6151 35.3986
1 40.3648 42.5231 37.0907
1 41.4229 41.8208 37.6773
2 41.8794 42.249 38.5752
1 39.8258 43.7657 37.6961
1 43.4103 37.8268 40.1277
1 42.2917 37.168 40.8054
1 41.8779 35.8366 40.4488
2 42.3657 35.324 39.6348
1 40.8586 35.2107 41.1251
2 40.5624 34.213 40.7471
1 40.1925 35.8501 42.1796
2 39.3979 35.3391 42.6804
1 40.5761 37.1539 42.5544
1 41.6906 37.7822 41.9118
2 41.9915 38.7642 42.2535
1 39.8902 37.8582 43.6248
1 5.84087 39.1101 1.79243
1 6.27595 39.5289 3.13586
1 7.12381 38.7216 3.90433
2 7.36401 37.7006 3.56672
1 7.71524 39.2388 5.06407
2 8.29886 38.5908 5.70076
1 7.39417 40.5452 5.54444
2 7.82993 40.8722 6.45699
1 6.46653 41.3358 4.85471
1 5.94472 40.8546 3.61196
2 5.29341 41.4713 3.0451
1 6.12365 42.7021 5.31561
1 6.52132 39.8889 44.2617
1 7.34593 40.7083 43.3707
1 8.78386 40.5925 43.4011
2 9.18443 39.7751 43.9868
1 9.56261 41.3818 42.5531
2 10.6242 41.2537 42.495
1 8.94785 42.2942 41.6886
2 9.57006 42.8438 40.9948
1 7.54279 42.4429 41.6507
1 6.77063 41.6028 42.4501
2 5.70599 41.6469 42.3991
1 6.91374 43.3488 40.6934
1 3.36725 37.225 0.818955
1 2.43855 36.4515 1.7002
1 2.69373 35.119 2.05515
2 3.53624 34.6005 1.64049
1 1.88504 34.4743 2.96267
2 2.0804 33.4373 3.22501
1 0.888349 35.1639 3.64845
2 0.283374 34.6269 4.33845
1 0.700215 36.4918 3.34795
1 1.43432 37.112 2.30337
2 1.25668 38.1624 2.05996
1 -0.204206 37.3375 4.17126
1 7.0581 0.0475175 40.7822
1 7.86854 0.918508 41.6757
1 9.26874 0.756746 41.8206
2 9.83471 0.0358595 41.2366
1 9.95522 1.52992 42.7253
2 11.0286 1.43541 42.8271
1 9.25003 2.48082 43.4782
2 9.83087 3.01808 44.2222
1 7.89468 2.6739 43.3415
1 7.1914 1.88264 42.4432
2 6.13552 1.99493 42.3148
1 7.18127 3.65663 44.1978
1 5.04424 1.19329 38.5909
1 4.74553 2.59814 38.2612
1 5.64388 3.38177 37.4853
2 6.64629 2.98545 37.2311
1 5.31201 4.67628 37.1047
2 5.92368 5.28176 36.4662
1 4.06053 5.1845 37.5208
2 3.85418 6.25054 37.3686
1 3.12233 4.42529 38.283
1 3.50129 3.12613 38.6619
2 2.86091 2.52345 39.2949
1 1.79861 4.94378 38.6533
1 0.294302 40.2845 7.27945
1 1.34998 40.9604 8.00757
1 1.65992 40.6119 9.30787
2 1.05462 39.8867 9.85392
1 2.70315 41.2516 9.98052
2 2.92948 40.9493 10.9938
1 3.4879 42.2232 9.34952
2 4.39846 42.6459 9.8624
1 3.17437 42.6278 8.04477
1 2.13697 41.9475 7.35573
2 1.89836 42.2154 6.34292
1 3.98 43.6362 7.31364
1 43.0203 37.9024 4.43416
1 41.7884 37.3167 3.85737
1 41.389 35.9987 4.15821
2 41.9406 35.4018 4.85055
1 40.3259 35.4479 3.46021
2 39.9906 34.4636 3.66369
1 39.6621 36.1858 2.44096
2 38.8719 35.6861 1.86251
1 40.013 37.5167 2.14031
1 41.0754 38.0324 2.89135
2 41.3844 39.0736 2.72868
1 39.44 38.2378 0.975522
1 37.3762 41.0922 43.965
1 36.7001 41.9993 43.0224
1 35.2967 42.0091 42.8796
2 34.611 41.4151 43.4972
1 34.6808 42.8073 41.8972
2 33.612 42.7845 41.8174
1 35.4604 43.624 41.0509
2 34.9261 44.2716 40.3934
1 36.848 43.5931 41.1108
1 37.4794 42.8406 42.139
2 38.5624 42.7993 42.2717
1 37.6713 44.3534 40.1605
3 0.177741 38.7097 40.6503
3 -0.55408 36.9027 39.5915
3 0.0213961 40.7185 38.0752
3 0.558949 38.7741 37.2904
3 43.4323 40.2771 38.9022
3 43.7271 39.102 37.06
3 43.5923 39.0893 40.138
3 44.2158 37.111 39.4402
3 5.23489 39.9507 1.05424
3 5.9933 37.9118 1.38554
3 5.26131 39.98 44.1767
3 7.05051 39.158 45.1375
3 3.00378 38.1612 44.9382
3 4.60469 36.6889 44.5374
3 2.91368 38.1382 0.0335133
3 4.64579 36.9404 0.844159
3 5.77238 0.136162 40.8213
3 7.64098 -0.737721 39.9462
3 4.66493 0.721504 39.7161
3 5.76759 0.449746 37.8006
3 3.75014 44.1988 38.1711
3 5.6822 43.4122 37.513
3 5.65708 43.5586 40.8157
3 7.61455 44.0635 39.8916
3 -0.466673 40.971 6.5589
3 0.162861 39.022 7.26107
3 -0.167022 38.5983 4.13363
3 45.4545 36.8133 5.0303
3 43.2014 39.164 4.415
3 43.7242 37.1744 5.20718
3 43.0755 40.1364 5.68158
3 43.2393 38.7655 7.41244
3 39.695 39.4708 0.772663
3 38.5835 37.6527 0.236269
3 40.5647 38.4899 44.5177
3 38.6298 37.7854 43.7172
3 38.6347 41.1258 44.1014
3 36.6961 40.2086 44.5822
3 38.5886 40.679 0.501879
3 36.6081 40.1704 -0.403519
3 3.93636 0.328191 6.15265
3 4.94616 -0.367849 7.99204
3 6.18701 -0.293861 3.89283
3 7.19175 0.344387 5.7525
3 5.06489 43.2682 4.85988
3 6.87963 43.3118 6.15005
3 3.81386 43.7217 6.03909
3 4.8244 44.357 7.92479
3 -0.830175 41.6976 41.0626
3 3.22902 41.5474 -0.52319
3 2.72365 44.6218 41.2553
3 -0.920756 41.5906 3.5988
3 41.3783 41.556 45.3393
3 3.09241 -0.84508 3.403
4 45.4123 40.1329 39.7375
4 45.242 37.7576 37.7136
4 4.20321 39.6789 -0.747308
4 6.05838 37.4482 -0.757436
4 4.3943 45.0249 40.0304
4 6.77054 45.0336 38.1027
4 45.0777 40.0999 4.93155
4 44.9358 37.7873 6.85022
4 39.8511 40.1631 45.446
4 37.3934 38.3187 45.3788
4 4.46159 45.3385 4.82049
4 6.58826 45.1851 7.08367
2 2.47049 41.5341 45.5339
2 3.30446 42.1168 0.243198
2 41.6341 2.73083 -0.457461
2 41.0631 2.54584 44.6762
2 41.401 -0.650751 42.2384
2 42.4795 -0.314188 41.0382
2 -0.413086 2.44376 41.1824
2 44.7223 3.19746 41.9445
2 3.18959 45.153 2.51706
2 2.29366 -0.289553 3.52253
2 44.3653 2.45631 3.64051
2 45.3688 3.22613 2.48541
2 2.31007 3.42899 44.6403
2 2.77976 2.60905 -0.609192
2 0.0223791 41.7969 3.50385
2 44.8438 42.2227 3.23359
2 41.5989 45.3501 2.76172
2 42.4981 -0.288864 3.97683
2 42.0368 41.4703 -0.629905
2 41.437 42.302 44.7452
2 2.85524 44.1771 42.1187
2 1.87349 44.9588 41.0016
2 -0.772695 42.5925 40.7352
2 -0.689868 41.5449 42.0127
1 44.2805 14.5754 17.111
1 43.4818 13.7916 18.0714
1 43.5961 12.4151 18.1135
2 44.2928 11.8906 17.457
1 42.8248 11.6914 19.0257
2 42.8325 10.6046 19.0915
1 41.9953 12.3652 19.9285
2 41.4147 11.7647 20.5894
1 41.8986 13.7355 19.8953
1 42.6341 14.4646 18.9859
2 42.545 15.5365 18.991
1 40.8708 14.4174 20.7374
1 43.1558 16.5902 14.6974
1 41.7836 16.8819 14.3533
1 41.0377 16.0291 13.4868
2 41.4493 15.0943 13.074
1 39.7583 16.4019 13.0035
2 39.1251 15.7141 12.372
1 39.2103 17.6217 13.4025
2 38.2479 17.9437 13.0432
1 39.9517 18.4956 14.1923
1 41.1777 18.077 14.7258
2 41.7184 18.727 15.4021
1 39.3465 19.7415 14.68
1 0.889649 17.2325 13.9475
1 2.02726 17.943 13.2578
1 2.3919 17.5471 11.9957
2 1.88288 16.7491 11.5411
1 3.50194 18.1254 11.3794
2 3.90217 17.7304 10.4438
1 4.21613 19.1632 12.0398
2 5.05625 19.5929 11.5562
1 3.81655 19.5709 13.3259
1 2.70098 18.957 13.9092
2 2.37264 19.3148 14.8374
1 4.49485 20.7126 14.0171
1 0.94902 14.7332 16.9868
1 1.92038 13.9849 17.8143
1 2.06067 12.5944 17.7268
2 1.43217 11.996 17.0687
1 3.08786 11.9538 18.439
2 3.12437 10.8388 18.3122
1 3.94263 12.6507 19.2861
2 4.6596 12.1476 19.888
1 3.76182 14.0613 19.4668
1 2.7774 14.6855 18.6841
2 2.65033 15.7994 18.7508
1 4.56706 14.8459 20.4176
1 38.3069 16.48 24.6368
1 37.8294 16.9344 25.9724
1 36.8985 16.1623 26.7252
2 36.4711 15.2456 26.2711
1 36.4983 16.6091 27.979
2 35.7638 16.0402 28.5552
1 36.8584 17.8665 28.4156
2 36.456 18.247 29.3753
1 37.7647 18.632 27.6954
1 38.2719 18.1597 26.4775
2 38.9609 18.7294 25.9353
1 38.1244 19.9793 28.1193
1 37.4513 16.4122 20.5692
1 36.7406 16.9673 19.3808
1 35.743 16.1745 18.767
2 35.5462 15.2114 19.2135
1 35.1691 16.6228 17.5726
2 34.4413 15.9978 17.0747
1 35.5504 17.8404 16.9931
2 35.1661 18.1068 16.0068
1 36.517 18.6541 17.642
1 37.0938 18.2041 18.837
2 37.8977 18.764 19.2656
1 37.058 19.9018 17.0222
1 40.7399 14.2718 23.9044
1 41.8237 13.626 24.6893
1 42.113 12.2385 24.5157
2 41.6132 11.6267 23.7608
1 43.0325 11.6287 25.3414
2 43.2618 10.5909 25.1433
1 43.6908 12.3533 26.3386
2 44.3714 11.8809 27.0246
1 43.5402 13.758 26.4186
1 42.5684 14.3831 25.6115
2 42.3292 15.4605 25.7907
1 44.2996 14.5234 27.4423
1 37.2578 23.8231 17.234
1 36.6231 24.8881 18.0727
1 35.233 25.1101 18.024
2 34.6513 24.6132 17.2426
1 34.6284 26.145 18.7685
2 33.5412 26.4132 18.5976
1 35.4146 26.9344 19.6111
2 34.9597 27.7341 20.1793
1 36.7936 26.6824 19.7508
1 37.3969 25.6837 18.928
2 38.4726 25.6024 18.95
1 37.6432 27.5372 20.6186
1 39.6596 23.7187 14.7405
1 40.3794 24.7634 13.9907
1 40.2031 24.9045 12.6441
2 39.4345 24.3488 12.1414
1 40.9513 25.8074 11.8853
2 40.658 26.0261 10.8941
1 41.8771 26.6177 12.5034
2 42.4351 27.3159 11.8654
1 42.1253 26.5207 13.8865
1 41.3527 25.6296 14.6169
2 41.5539 25.4893 15.6646
1 43.1982 27.3061 14.5057
1 43.703 17.1304 30.5559
1 42.4854 17.7428 31.1816
1 41.881 17.1526 32.3165
2 42.29 16.2296 32.7143
1 40.7526 17.7512 32.8882
2 40.277 17.3012 33.7297
1 40.1195 18.8312 32.2884
2 39.2104 19.2239 32.7443
1 40.6898 19.4543 31.1785
1 41.9017 18.9408 30.6586
2 42.2862 19.3768 29.716
1 40.0333 20.623 30.514
1 1.04996 14.766 27.8889
1 2.20591 14.1328 27.1969
1 2.77915 12.9525 27.7382
2 2.31186 12.3744 28.542
1 3.89078 12.3972 27.1712
2 4.30306 11.5011 27.5499
1 4.55147 13.0041 26.1067
2 5.445 12.5598 25.6631
1 4.04191 14.2133 25.6078
1 2.87491 14.7819 26.1442
2 2.50345 15.7509 25.7887
1 4.69769 14.9287 24.4602
1 6.93613 17.1084 20.244
1 7.52997 17.7061 19.0376
1 8.84969 17.4128 18.6776
2 9.37507 16.5932 19.1653
1 9.44877 17.9889 17.5475
2 10.4995 17.6695 17.2583
1 8.78422 18.9999 16.8621
2 9.19589 19.3424 15.9349
1 7.45882 19.3864 17.1852
1 6.82624 18.7322 18.2927
2 5.81914 19.0137 18.5615
1 6.7433 20.4164 16.3865
3 44.2026 15.8599 17.0746
3 45.0179 13.9634 16.2603
3 43.5947 16.9287 15.8255
3 43.8405 15.8614 13.9276
3 0.166614 17.8835 14.731
3 0.722939 15.9965 13.8229
3 0.728642 15.961 17.2468
3 0.243495 14.1371 16.1066
3 39.4863 16.7376 24.2684
3 37.6222 15.6246 24.0045
3 38.0892 17.1704 21.3703
3 37.5645 15.1523 20.663
3 40.9933 15.6663 20.8989
3 39.9854 13.7782 21.4108
3 40.6072 15.5438 23.8741
3 39.981 13.5874 23.1456
3 38.5235 23.72 17.1747
3 36.5517 23.1087 16.4573
3 39.7525 23.6336 16.0201
3 38.7935 23.0083 14.1277
3 40.086 20.5891 15.3141
3 38.0898 19.9216 14.6408
3 37.8043 20.6761 17.7009
3 36.9683 20.0395 15.7473
3 44.5305 17.8283 29.9317
3 43.847 15.8566 30.5448
3 44.253 15.7726 27.402
3 45.0076 13.9499 28.3352
3 0.916704 16.0314 27.8405
3 0.247101 14.0448 28.5752
3 1.07035 17.1094 29.07
3 0.601205 16.1504 31.0051
3 3.97224 15.5645 23.6171
3 5.92353 14.7459 24.1951
3 4.45966 16.0987 20.4726
3 5.36915 14.2633 21.2121
3 5.67676 17.1917 20.4623
3 7.69356 16.4826 21.0828
3 6.2258 17.9371 23.4125
3 7.99362 16.769 22.8043
3 40.8454 23.0791 29.8122
3 38.9677 23.8471 30.785
3 38.8272 24.0639 27.5124
3 36.891 23.3185 28.3145
3 38.9111 20.6815 27.431
3 37.7234 20.4075 29.251
3 40.701 21.4425 29.8043
3 38.7768 20.6839 30.5217
3 -0.698801 18.8478 17.5764
3 40.9128 18.6394 21.9531
3 40.7902 21.3914 18.4895
3 45.4304 18.6971 26.9005
3 3.30836 18.4797 22.759
3 41.452 22.5557 26.4987
4 -0.749303 17.1283 16.3831
4 -0.874401 14.7975 14.3514
4 39.9045 16.7925 22.2539
4 38.1035 14.3346 22.4738
4 39.3954 21.7989 16.9712
4 37.1957 21.8893 14.8105
4 -0.893518 17.1319 28.2999
4 -0.841923 14.7767 30.2805
4 4.71263 16.9925 22.383
4 6.97372 14.9078 22.4235
4 39.9696 22.4265 27.9797
4 37.6019 22.3964 30.0053
1 0.352935 30.0221 27.135
1 1.00062 30.8558 26.0937
1 0.795639 32.2315 25.9753
2 0.188759 32.7844 26.7152
1 1.47777 32.9806 25.0598
2 1.299 34.0269 25.0542
1 2.43154 32.3952 24.2039
2 3.00836 33.0065 23.5346
1 2.59643 30.982 24.2383
1 1.88238 30.2419 25.1635
2 2.05492 29.1472 25.1776
1 3.61734 30.2904 23.3702
1 1.66046 27.8564 30.1811
1 3.01452 27.4365 30.6019
1 3.87683 28.3093 31.2764
2 3.55783 29.2919 31.4894
1 5.20081 27.9716 31.5617
2 5.8525 28.6957 32.0594
1 5.6634 26.6951 31.2579
2 6.65401 26.3784 31.5076
1 4.82606 25.7615 30.6287
1 3.49069 26.1181 30.3697
2 2.84395 25.3784 29.9233
1 5.40847 24.4555 30.103
1 43.7728 27.4051 30.4202
1 42.6807 26.7031 31.1535
1 42.3243 27.0904 32.4496
2 42.8719 27.8724 32.9161
1 41.29 26.4454 33.1719
2 41.0016 26.7489 34.1554
1 40.5725 25.3902 32.5293
2 39.7296 24.9281 33.0851
1 40.9458 24.9921 31.2368
1 42.0269 25.6095 30.5837
2 42.3444 25.3206 29.5803
1 40.2321 23.9015 30.5558
1 43.6248 29.5654 28.0535
1 42.3943 30.1396 27.5002
1 41.8778 31.3105 28.0768
2 42.2996 31.7209 28.9598
1 40.809 31.9767 27.5358
2 40.427 32.9222 27.9615
1 40.208 31.4779 26.3762
2 39.35 32.0351 26.0242
1 40.6309 30.2629 25.8101
1 41.7206 29.5877 26.4053
2 42.0818 28.6815 25.9355
1 39.9945 29.7792 24.6095
1 6.6337 28.2637 19.6842
1 7.19956 27.8408 18.4071
1 8.11166 28.6073 17.7045
2 8.37006 29.6052 18.0076
1 8.64274 28.0987 16.5271
2 9.43213 28.6771 16.0347
1 8.23071 26.8838 15.9951
2 8.69473 26.518 15.0804
1 7.33901 26.0875 16.7094
1 6.85848 26.5573 17.9393
2 6.19908 25.8905 18.5117
1 6.90123 24.8027 16.147
1 6.8632 27.7559 23.9325
1 7.65976 27.1373 25.0216
1 8.73128 27.8202 25.6065
2 9.07967 28.733 25.1612
1 9.35088 27.3065 26.7866
2 10.1477 27.8003 27.2271
1 8.92274 26.1196 27.3554
2 9.48489 25.6902 28.132
1 7.83042 25.4247 26.7645
1 7.21035 25.9564 25.6207
2 6.3387 25.4715 25.2313
1 7.24817 24.2573 27.4972
1 4.13953 30.1543 20.2105
1 3.29181 30.8704 19.2167
1 3.60427 32.1971 18.8219
2 4.42169 32.6944 19.2402
1 2.80456 32.8731 17.8899
2 3.13386 33.8568 17.6201
1 1.73568 32.1921 17.2766
2 1.22207 32.6896 16.476
1 1.44159 30.8773 17.6232
1 2.19663 30.1816 18.5832
2 2.00321 29.1235 18.7607
1 0.381925 30.1405 16.921
1 7.83667 21.1558 27.0298
1 8.516 20.2884 26.0173
1 9.92199 20.0347 26.0606
2 10.4909 20.5364 26.8496
1 10.508 19.1035 25.2054
2 11.5718 18.9796 25.3039
1 9.74263 18.5002 24.2256
2 10.2612 17.757 23.6145
1 8.34821 18.6815 24.1868
1 7.76237 19.6555 25.0156
2 6.67187 19.8784 24.9848
1 7.48497 17.7966 23.3564
1 5.11116 20.1917 29.9399
1 4.49211 19.0341 30.6424
1 4.90214 18.5916 31.9414
2 5.73609 19.0357 32.3994
1 4.20654 17.6102 32.668
2 4.50197 17.3132 33.681
1 3.11294 16.994 32.0782
2 2.68197 16.2096 32.6795
1 2.66304 17.3959 30.8047
1 3.37928 18.3842 30.082
2 3.05417 18.6683 29.0819
1 1.38903 16.8659 30.2715
1 0.113344 27.2001 14.1773
1 1.0439 26.385 13.3892
1 0.990129 26.3131 12.0037
2 0.29011 26.9676 11.4332
1 1.87392 25.5228 11.2834
2 1.82163 25.5137 10.2071
1 2.78481 24.6906 11.9496
2 3.45861 24.0782 11.3956
1 2.77136 24.6386 13.3611
1 1.95135 25.5195 14.0583
2 1.97794 25.4868 15.1745
1 3.70938 23.7412 14.0732
1 43.4606 30.347 16.8168
1 42.3995 31.1113 17.4902
1 41.7505 32.1711 16.8779
2 42.0703 32.5381 15.9075
1 40.6099 32.8032 17.4826
2 40.0981 33.6245 17.0005
1 40.099 32.2559 18.6917
2 39.2381 32.7566 19.1674
1 40.7593 31.1957 19.3153
1 41.9168 30.656 18.7265
2 42.4422 29.7908 19.2131
1 40.1591 30.4935 20.4372
1 37.5839 27.5887 23.8225
1 36.8552 26.703 24.8087
1 35.4504 26.7416 24.8666
2 34.8711 27.371 24.2069
1 34.776 25.8894 25.7643
2 33.6873 25.8615 25.7976
1 35.4428 25.0944 26.6811
2 34.845 24.5371 27.3811
1 36.8443 25.0091 26.638
1 37.552 25.8413 25.7056
2 38.6228 25.8017 25.6201
1 37.5671 24.1104 27.5548
3 0.381814 28.7572 27.0508
3 -0.211569 30.5571 28.1636
3 0.800033 26.9799 29.8388
3 1.35028 29.0825 30.1361
3 43.9735 27.1216 29.1969
3 44.5282 28.2656 30.9807
3 43.8581 28.2894 27.9997
3 44.529 30.3543 28.5176
3 5.48315 27.7983 20.0367
3 7.21527 29.1278 20.4131
3 6.2653 27.0382 23.0747
3 6.88023 28.9865 23.7843
3 3.50382 29.0403 23.1938
3 4.59971 30.9289 22.8001
3 4.19303 28.8704 20.222
3 4.7734 30.8388 21.073
3 6.71132 21.6615 26.7496
3 8.27862 21.2594 28.2182
3 4.89388 20.3603 28.7292
3 5.83106 21.0126 30.5805
3 4.6073 23.6738 29.528
3 6.67253 24.2229 30.1169
3 6.43711 23.4634 26.8827
3 7.55317 24.0067 28.7339
3 0.245435 27.3006 15.4299
3 -0.720213 27.9175 13.5614
3 -0.539166 29.5466 17.5945
3 0.325117 30.1842 15.6455
3 44.2778 29.6212 17.5363
3 43.4903 30.3064 15.5411
3 43.3088 27.3864 15.7745
3 44.0527 27.9108 13.7687
3 40.8614 29.8184 21.2666
3 38.9155 30.5914 20.5858
3 40.103 28.5596 24.308
3 39.3288 30.5561 23.8544
3 38.851 27.5633 23.8106
3 36.9477 28.3405 23.0215
3 38.8514 27.2168 20.7756
3 37.141 28.4617 21.3118
3 4.43785 20.8209 15.2769
3 5.1167 21.6061 13.3453
3 5.5211 20.5529 16.5237
3 7.39362 21.2431 15.676
3 6.19477 24.03 16.8673
3 7.04648 24.5435 14.9237
3 3.49365 23.4395 15.3048
3 4.83519 23.4116 13.5148
3 -0.299103 25.7345 27.074
3 3.49123 26.0476 22.1802
3 3.37623 22.3827 26.8612
3 45.2901 26.2929 18.0418
3 41.9022 27.058 21.9027
3 3.81398 22.5189 18.3608
4 -0.600641 27.3566 28.3212
4 -0.631348 29.6993 30.1229
4 4.64535 27.7703 21.9633
4 6.49327 30.1524 22.1376
4 5.08876 22.2473 28.0227
4 7.42036 22.2502 29.9119
4 45.0881 27.8379 16.7123
4 45.0692 29.7727 14.3904
4 40.1539 28.0956 22.1712
4 37.9502 30.1251 22.3421
4 4.8231 22.5091 16.5383
4 6.76079 22.6466 14.1746
2 3.39239 25.6754 23.069
2 3.10847 25.5388 21.4182
2 40.7671 19.0299 21.0866
2 41.6378 18.9693 22.5074
2 42.1611 21.8524 26.4442
2 41.5031 23.3682 25.9634
2 44.5944 19.1551 26.8029
2 -0.265568 18.9499 26.3662
2 3.20515 21.8075 18.589
2 3.98499 23.2472 18.9663
2 44.9727 19.4229 17.6158
2 0.0973822 19.0559 18.0811
2 3.56324 19.1403 23.3896
2 2.4665 18.409 22.3303
2 -0.297566 26.0291 18.3434
2 44.5143 25.8278 18.4105
2 41.4321 22.0622 18.8332
2 40.6924 20.5304 18.9447
2 42.695 27.2433 22.4117
2 41.8449 26.3513 21.2775
2 2.62195 22.95 27.0642
2 3.3462 21.6807 26.1853
2 -0.667961 24.8703 27.3766
2 -0.0757825 25.7812 26.1287
1 29.8166 44.0038 16.9756
1 30.6026 43.2269 17.9228
1 31.9792 43.4378 17.9462
2 32.4415 44.1906 17.3114
1 32.7884 42.7338 18.8293
2 33.8534 42.9781 18.8572
1 32.2212 41.8052 19.7064
2 32.9113 41.302 20.4007
1 30.8571 41.5979 19.7292
1 30.0275 42.2953 18.8159
2 28.9633 42.1113 18.8159
1 30.2876 40.7064 20.7647
1 27.7762 43.26 14.631
1 27.393 41.9078 14.1572
1 28.2022 41.184 13.2824
2 29.1529 41.569 12.9465
1 27.8269 39.9449 12.7999
2 28.4153 39.3583 12.0625
1 26.6025 39.377 13.2261
2 26.2957 38.44 12.844
1 25.7601 40.0917 14.0796
1 26.177 41.3626 14.5571
2 25.5313 41.9254 15.1947
1 24.5201 39.4536 14.5988
1 26.8528 0.685896 14.0972
1 26.0434 1.67381 13.3583
1 26.4545 2.02962 12.064
2 27.285 1.5491 11.5741
1 25.7464 3.06167 11.374
2 26.0557 3.33173 10.3505
1 24.7082 3.73922 12.0139
2 24.2961 4.56094 11.4915
1 24.3701 3.45625 13.339
1 25.0127 2.38466 13.9989
2 24.7814 2.14452 14.9984
1 23.4818 4.34558 14.1566
1 29.9952 0.915577 16.9383
1 30.7641 1.89071 17.797
1 32.1529 2.13935 17.6118
2 32.6952 1.65179 16.8136
1 32.8518 3.10162 18.3623
2 33.8701 3.30603 18.1207
1 32.1665 3.82887 19.3398
2 32.7118 4.63194 19.8761
1 30.7823 3.62568 19.558
1 30.1275 2.63754 18.7938
2 29.0444 2.40446 18.9278
1 30.0553 4.4197 20.6114
1 28.5601 37.8443 24.7016
1 27.9818 37.3195 25.9707
1 28.8078 36.5708 26.8849
2 29.8164 36.2524 26.5865
1 28.3375 36.2771 28.1819
2 28.968 35.712 28.8144
1 27.0758 36.7267 28.5977
2 26.7295 36.5163 29.6566
1 26.2368 37.4102 27.7275
1 26.6845 37.7236 26.3981
2 26.014 38.269 25.7144
1 24.8833 37.8475 28.1569
1 28.154 38.0414 20.5896
1 27.5553 37.3003 19.4596
1 28.1913 36.1991 18.9117
2 29.2151 35.8874 19.2605
1 27.6273 35.5343 17.8284
2 28.2044 34.7214 17.3486
1 26.4124 35.9449 17.2504
2 26.0767 35.4054 16.362
1 25.7061 36.9929 17.8158
1 26.248 37.6564 18.9556
2 25.6967 38.491 19.3701
1 24.4087 37.4155 17.2095
1 30.6722 41.0749 23.8962
1 31.3708 42.0788 24.7579
1 32.7709 42.36 24.6458
2 33.391 41.786 24
1 33.3632 43.1679 25.6145
2 34.4141 43.2775 25.613
1 32.5886 43.778 26.5889
2 33.0735 44.3699 27.3646
1 31.205 43.6068 26.6279
1 30.5987 42.7136 25.7224
2 29.5311 42.4796 25.8244
1 30.3753 44.2665 27.6295
1 20.6652 37.3586 17.4015
1 19.6998 36.6638 18.3238
1 19.7087 35.2201 18.4586
2 20.4224 34.6086 17.8527
1 18.8286 34.5718 19.3137
2 18.8246 33.4619 19.3801
1 17.9806 35.3157 20.1329
2 17.3005 34.7767 20.815
1 17.9674 36.7161 20.0535
1 18.8598 37.3747 19.1592
2 18.8838 38.4583 19.1565
1 17.0829 37.4691 20.9724
1 20.3008 39.6602 14.9585
1 19.1104 40.349 14.3049
1 18.7949 39.986 12.9952
2 19.3182 39.1763 12.4979
1 17.8172 40.6778 12.2999
2 17.4966 40.3713 11.3047
1 17.0626 41.6953 12.9554
2 16.2985 42.1823 12.3625
1 17.3955 42.0617 14.2817
1 18.4116 41.39 14.9471
2 18.7529 41.6887 15.9586
1 16.6559 43.1899 14.916
1 27.5873 43.6201 30.628
1 26.9442 42.4564 31.1961
1 27.4561 41.8552 32.3537
2 28.3421 42.2469 32.8591
1 26.8549 40.6771 32.8586
2 27.2031 40.2467 33.7677
1 25.7522 40.0763 32.2473
2 25.3082 39.1598 32.6108
1 25.2753 40.6669 31.1005
1 25.8122 41.8862 30.6187
2 25.3771 42.3203 29.7514
1 24.1865 39.9923 30.3719
1 30.1329 0.937779 28.0603
1 30.9117 2.02004 27.4127
1 32.1144 2.40533 27.9595
2 32.487 1.9885 28.8795
1 32.8077 3.47544 27.3671
2 33.7202 3.75656 27.7676
1 32.2574 4.20441 26.2843
2 32.8808 4.97149 25.825
1 31.0227 3.80609 25.7786
1 30.354 2.72375 26.3187
2 29.4048 2.39132 25.8893
1 30.416 4.50888 24.6832
1 27.8291 6.91702 20.8254
1 27.0003 7.65156 19.8708
1 27.1382 9.0242 19.7254
2 27.8862 9.5659 20.258
1 26.3867 9.73362 18.7835
2 26.5455 10.8099 18.6885
1 25.4443 9.06408 17.9942
2 24.8811 9.6629 17.3285
1 25.2426 7.68288 18.1287
1 26.0629 6.97758 19.0739
2 25.9299 5.91682 19.2245
1 24.2238 7.00614 17.2663
3 28.5439 43.9852 17.0228
3 30.3949 44.8713 16.2092
3 27.3346 43.7169 15.7338
3 28.582 43.9616 13.9275
3 26.2975 -0.0966598 14.9314
3 28.1034 0.694063 13.9531
3 28.7593 0.772656 17.06
3 30.6167 0.0879519 16.1909
3 27.742 38.2529 23.8058
3 29.8079 38.0674 24.5956
3 27.8225 39.2483 20.7884
3 29.1073 37.5023 21.2597
3 29.028 40.5981 20.9315
3 31.0582 39.9846 21.5012
3 29.4024 41.0782 23.87
3 31.3391 40.2464 23.2112
3 20.7205 38.6371 17.394
3 21.3652 36.6312 16.6053
3 20.4966 39.7918 16.2292
3 21.0987 38.9334 14.2929
3 23.6482 40.2267 15.1417
3 24.3833 38.1923 14.7376
3 23.5943 38.2002 17.8541
3 24.2052 37.2036 15.9829
3 26.9307 44.4374 29.9272
3 28.8444 43.7976 30.7786
3 29.158 44.416 27.3451
3 30.8665 44.8466 28.6491
3 28.8427 0.838398 27.8445
3 30.7278 0.0796165 28.8204
3 27.4455 1.07684 28.8694
3 28.4726 0.630038 30.7424
3 29.8529 3.81251 23.7815
3 30.5119 5.77375 24.5785
3 28.7869 4.39225 20.6904
3 30.7454 5.17221 21.3684
3 27.7505 5.64332 20.9513
3 28.5359 7.56148 21.6962
3 27.1966 5.65954 23.8879
3 28.2701 7.53433 23.3971
3 21.7138 40.7297 29.5082
3 21.1527 38.9597 30.6927
3 20.7835 38.7859 27.4229
3 21.4742 36.8435 28.1676
3 24.1672 38.4796 27.3775
3 24.4826 37.5909 29.3425
3 23.3628 40.6864 29.6354
3 24.1043 38.7334 30.4396
3 25.9165 -0.567562 17.9335
3 26.311 41.1048 22.955
3 22.925 41.3889 17.9499
3 26.1104 45.2343 26.8576
3 26.9397 2.65202 22.8727
3 22.5411 41.1339 26.2401
4 27.3729 -0.748869 16.4855
4 29.6329 -0.695284 14.4343
4 28.0276 39.9707 22.7609
4 30.5615 38.3076 22.69
4 22.4853 39.6865 16.8263
4 22.3855 37.4121 14.9957
4 27.7284 -0.922802 28.2397
4 29.8612 -0.903837 30.4369
4 28.1341 4.36323 22.6881
4 30.1183 6.65572 22.7434
4 22.5187 39.753 27.8929
4 22.4041 37.517 29.9426
1 14.7046 0.679693 27.9382
1 13.8932 1.62742 27.1153
1 12.5242 1.74899 27.3457
2 12.0348 1.15953 28.1281
1 11.7343 2.57906 26.5606
2 10.6364 2.68528 26.7635
1 12.3428 3.38942 25.591
2 11.7162 4.03125 24.9908
1 13.7497 3.31749 25.3574
1 14.519 2.42319 26.1036
2 15.5713 2.29813 25.9736
1 14.356 4.26422 24.3787
1 16.9723 0.781694 30.5581
1 17.59 1.95902 31.1879
1 17.0545 2.50411 32.3522
2 16.2513 2.02313 32.8328
1 17.5026 3.69621 32.8698
2 17.0429 4.02577 33.8065
1 18.5713 4.35609 32.2465
2 18.9678 5.2925 32.6659
1 19.153 3.82352 31.0671
1 18.6273 2.59992 30.5476
2 18.9908 2.21279 29.6484
1 20.2246 4.56033 30.3975
1 17.4573 43.5712 30.4802
1 18.2488 42.601 31.2359
1 17.9032 42.2391 32.5685
2 16.9992 42.6636 33.0175
1 18.6238 41.2461 33.2208
2 18.271 40.9667 34.219
1 19.6309 40.5708 32.5229
2 20.0908 39.7332 33.0339
1 20.0425 40.9806 31.2122
1 19.3331 41.9777 30.5741
2 19.595 42.2746 29.5583
1 21.0169 40.1903 30.4284
1 14.8427 42.8651 28.6621
1 14.3969 41.5783 28.1856
1 13.7427 40.6712 29.0152
2 13.6343 40.8579 30.0209
1 13.235 39.4724 28.4904
2 12.7604 38.7274 29.1343
1 13.4095 39.1563 27.1452
2 13.0797 38.1894 26.8087
1 14.1391 40.0108 26.2865
1 14.5769 41.2644 26.7949
2 15.1943 41.9051 26.184
1 14.5778 39.5779 24.919
1 16.446 7.0585 20.433
1 17.0192 7.63206 19.1931
1 16.231 8.44692 18.3572
2 15.2641 8.81184 18.6467
1 16.7006 8.82236 17.082
2 16.0785 9.48024 16.4815
1 17.9405 8.39859 16.6368
2 18.2884 8.74681 15.674
1 18.7244 7.52168 17.4335
1 18.3045 7.22907 18.7521
2 18.8761 6.56998 19.3959
1 19.9861 6.94883 16.8873
1 16.3926 6.76741 24.7378