2544
 Atoms. Timestep: 0
1 47.0649 9.87484 4.04879
1 45.9928 10.2371 3.10627
1 45.7422 11.5525 2.75601
2 46.3285 12.3735 3.18706
1 44.6701 11.8808 1.93356
2 44.4656 12.9257 1.75438
1 43.8688 10.8851 1.39758
2 43.0398 11.1674 49.1835
1 44.1389 9.52809 1.68941
1 45.1667 9.23605 2.59814
2 45.2561 8.18876 2.89985
1 43.3058 8.42635 49.5162
1 47.5802 7.83541 7.6845
1 46.7003 7.17599 8.68783
1 46.3084 7.91288 9.79273
2 46.8409 8.84557 10.046
1 45.3515 7.45116 10.6714
2 45.0777 7.99531 11.5539
1 44.6928 6.22562 10.3971
2 43.9634 5.87002 11.1231
1 44.9796 5.51704 9.22358
1 46.074 5.93592 8.38988
2 46.3608 5.34114 7.4954
1 44.2477 4.2869 8.91967
1 2.56371 8.23714 7.3566
1 3.76231 7.8506 8.13621
1 4.34155 8.78288 9.03009
2 3.8958 9.76483 9.21383
1 5.57824 8.50422 9.66183
2 6.02254 9.27368 10.3013
1 6.20044 7.29603 9.43452
2 7.1965 7.18611 9.84583
1 5.61517 6.33228 8.5823
1 4.39097 6.60869 7.96125
2 3.92679 5.88044 7.29291
1 6.3365 5.08097 8.23958
1 3.05105 9.66184 4.6281
1 4.38651 10.0511 4.09544
1 5.15632 11.0582 4.70945
2 4.84377 11.5736 5.57012
1 6.32118 11.5107 4.1073
2 6.86493 12.3821 4.52451
1 6.83224 10.8924 2.9847
2 7.77963 11.2777 2.6272
1 6.10178 9.86134 2.35005
1 4.85029 9.50931 2.88205
2 4.22153 8.74497 2.35544
1 6.71933 9.11907 1.26283
1 41.1191 5.06119 46.4712
1 40.5825 4.17265 45.4347
1 39.4952 4.57411 44.6238
2 39.0129 5.4872 44.8604
1 38.9921 3.7352 43.637
2 38.2483 4.09371 42.9244
1 39.6361 2.52081 43.3873
2 39.2242 1.93084 42.6369
1 40.7877 2.13467 44.158
1 41.2083 2.92186 45.1985
2 42.0598 2.6414 45.7955
1 41.3761 49.0009 43.9396
1 40.4963 5.59818 2.00703
1 39.9586 5.10101 3.29038
1 38.6817 5.49737 3.74078
2 38.0619 6.12104 3.10536
1 38.2258 5.11686 4.97133
2 37.2394 5.49305 5.32869
1 38.9547 4.25888 5.81015
2 38.5601 3.98977 6.7833
1 40.2697 3.88374 5.41815
1 40.7826 4.36008 4.16517
2 41.7889 4.13238 3.8739
1 41.2018 3.15817 6.32417
1 43.2045 7.42304 46.5417
1 44.0426 7.98692 45.4893
1 43.7898 9.29135 45.0214
2 42.9682 9.89432 45.4275
1 44.6293 9.91305 44.0969
2 44.3859 10.9476 43.7821
1 45.7569 9.24327 43.6547
2 46.4626 9.68918 43.0038
1 45.999 7.89201 44.0105
1 45.1374 7.29033 44.9592
2 45.3044 6.25745 45.2424
1 47.1919 7.17591 43.4896
1 41.579 48.2135 7.35276
1 40.902 47.0441 6.77492
1 39.536 46.8602 6.99986
2 39.0115 47.6586 7.51007
1 38.8625 45.7469 6.49656
2 37.7983 45.6222 6.65978
1 39.5446 44.7563 5.76381
2 38.967 43.9261 5.39709
1 40.9132 44.9021 5.56306
1 41.5723 46.0056 6.12828
2 42.6406 46.0864 5.97953
1 41.6666 43.8951 4.78372
1 43.5917 48.3677 9.67182
1 44.1662 47.2536 10.4525
1 43.7009 46.9555 11.7504
2 42.9065 47.5401 12.1918
1 44.297 45.9763 12.4979
2 43.8966 45.7881 13.5018
1 45.4314 45.2539 12.0142
2 45.9202 44.5582 12.683
1 45.9688 45.5768 10.7068
1 45.3039 46.5599 9.95503
2 45.6837 46.794 8.98361
1 47.2789 45.1359 10.2515
1 47.0114 4.41303 41.7851
1 45.9131 3.56824 41.2508
1 45.4128 3.86731 39.9752
2 45.7513 4.71356 39.4099
1 44.5053 2.9527 39.3861
2 44.0525 3.13573 38.3899
1 44.0816 1.82693 40.0835
2 43.2967 1.23279 39.6568
1 44.5001 1.61977 41.4007
1 45.4034 2.50352 42.0056
2 45.8102 2.29439 42.9794
1 43.8758 48.6834 42.1549
1 2.16352 7.73003 43.7182
1 3.02636 8.71481 44.3527
1 3.09358 10.0362 43.8316
2 2.4279 10.4698 43.0908
1 4.08256 10.9076 44.2687
2 4.17705 11.9142 43.8748
1 5.02426 10.484 45.2003
2 5.79548 11.1397 45.5329
1 4.9498 9.19654 45.7261
1 3.93169 8.3015 45.31
2 3.98881 7.25851 45.673
1 5.97991 8.69295 46.6442
1 9.19372 7.25246 1.85633
1 9.62193 7.10593 3.27944
1 10.3783 8.13738 3.85284
2 10.7456 8.98231 3.30437
1 10.7769 8.06395 5.17743
2 11.3008 8.90414 5.61093
1 10.2892 7.03641 6.00078
2 10.4856 7.12343 7.04881
1 9.45908 5.98125 5.43623
1 9.21534 5.99604 4.04802
2 8.60904 5.20786 3.54152
1 8.95373 4.87654 6.26556
3 47.1696 8.66119 4.44518
3 47.8219 10.7884 4.48284
3 48.3683 7.09771 6.98757
3 47.5083 9.10867 7.50046
3 1.80925 7.35942 6.80611
3 2.30162 9.4716 7.13804
3 2.4458 8.62732 4.1699
3 2.55837 10.3125 5.62293
3 42.3373 4.9488 46.8855
3 40.3324 5.89985 46.9758
3 41.2631 4.8452 1.28758
3 40.2774 6.80793 1.68595
3 43.5612 7.26177 1.27249
3 42.3671 8.71798 48.7048
3 43.4372 6.2287 46.9621
3 42.284 8.14385 47.0986
3 42.8353 48.3234 7.23095
3 40.9202 49.1808 7.89597
3 43.9132 48.5361 8.46279
3 42.7866 49.1674 10.2374
3 44.868 3.30628 8.40013
3 42.9719 4.22987 9.0896
3 42.472 3.2328 6.18428
3 40.7509 2.49643 7.3358
3 47.2707 4.47958 43.0034
3 47.6984 5.14395 41.004
3 47.4156 5.93404 43.8074
3 47.9861 7.79541 42.6909
3 2.2523 6.51576 44.0774
3 1.44405 8.07584 42.7188
3 2.21076 3.87862 42.1489
3 2.77423 5.6808 41.0177
3 5.67234 7.82881 47.5549
3 7.21649 9.07642 46.542
3 6.08621 8.10632 49.1732
3 7.96356 9.27476 49.4352
3 8.45116 6.34787 1.3369
3 9.36286 8.40754 1.24553
3 7.93642 5.85439 46.4208
3 9.81228 6.75681 46.9964
3 44.4051 45.5978 43.291
3 43.591 46.0744 41.3527
3 42.0888 46.0913 45.5368
3 41.5577 44.8712 43.7697
3 42.5128 48.7485 44.4543
3 40.8693 48.1743 43.1514
3 43.9925 48.6657 43.4332
3 43.2543 47.7447 41.5344
3 48.8752 6.14751 3.66199
3 44.2423 4.17148 1.14838
3 45.0999 1.89382 5.54639
3 1.65166 3.65192 45.204
3 5.81048 4.71886 48.5503
3 44.9792 46.8833 46.2118
4 48.931 7.70284 4.99585
4 48.7351 10.4279 6.33666
4 42.8871 5.50742 48.8462
4 40.6761 7.51545 48.313
4 43.8554 2.05419 7.17933
4 41.7829 2.51318 9.22915
4 1.11166 4.87203 43.5903
4 49.1635 6.69222 41.1574
4 7.06556 6.39387 48.223
4 8.98743 8.60626 47.6179
4 43.6437 46.9581 44.6033
4 41.7051 46.4627 42.2987
1 3.36373 40.2893 46.1296
1 4.67072 39.9287 46.7465
1 5.38539 38.7631 46.3292
2 5.04876 38.1256 45.549
1 6.66951 38.4857 46.8944
2 7.26086 37.6421 46.5116
1 7.20937 39.3094 47.8831
2 8.18728 39.0619 48.3128
1 6.44185 40.4056 48.3503
1 5.20313 40.7505 47.7796
2 4.62327 41.5578 48.1389
1 7.02328 41.2796 49.4225
1 2.97562 41.9309 43.4728
1 4.11214 42.3865 42.6744
1 4.51962 41.6681 41.5308
2 3.96506 40.8213 41.1361
1 5.70708 42.0464 40.8694
2 6.09525 41.4265 40.0684
1 6.38662 43.1964 41.2351
2 7.26268 43.4926 40.6402
1 5.89901 43.9811 42.2746
1 4.79401 43.5726 43.014
2 4.397 44.1376 43.8345
1 6.65655 45.2567 42.5968
1 47.9318 42.0137 42.8781
1 47.1661 42.8006 41.8746
1 47.3967 42.7315 40.4827
2 48.1249 42.0515 40.0531
1 46.6644 43.4978 39.6261
2 46.881 43.4164 38.587
1 45.5916 44.3205 40.0659
2 45.0069 44.8451 39.3117
1 45.3716 44.4665 41.4597
1 46.1337 43.6381 42.3282
2 45.9279 43.6886 43.4031
1 44.3544 45.3537 42.0684
1 47.3647 39.7473 46.4392
1 46.1751 39.2803 47.183
1 45.4956 38.1519 46.7408
2 45.857 37.4787 45.9573
1 44.303 37.7901 47.3655
2 43.8095 36.8765 47.0531
1 43.8479 38.5154 48.4698
2 42.9049 38.2118 48.9208
1 44.5197 39.6558 48.9301
1 45.7152 40.0267 48.2764
2 46.2399 40.9714 48.5308
1 43.9228 40.5775 1.51353
1 8.98926 44.4824 4.56922
1 9.62938 45.5179 5.40907
1 10.9852 45.415 5.68863
2 11.5373 44.5375 5.37642
1 11.6056 46.3859 6.47645
2 12.6754 46.3763 6.65354
1 10.8655 47.4841 6.93295
2 11.3536 48.2581 7.51055
1 9.52848 47.6584 6.54604
1 8.90244 46.6649 5.78829
2 7.88565 46.7663 5.55941
1 8.82584 48.8699 6.95294
1 9.58013 43.4304 49.2508
1 10.1109 43.7707 47.9071
1 11.1392 42.9786 47.3556
2 11.5261 42.1488 47.93
1 11.5082 43.1397 45.9978
2 12.2777 42.5063 45.579
1 10.8725 44.1427 45.2221
2 11.1889 44.2965 44.1939
1 9.86306 44.9275 45.7527
1 9.50299 44.7551 47.0881
2 8.67879 45.3081 47.4807
1 9.11158 45.8525 44.8574
1 6.58235 41.9311 4.66759
1 5.66825 41.3619 5.69616
1 5.62301 39.9937 6.01953
2 6.25048 39.2834 5.49824
1 4.78628 39.5293 7.05189
2 4.7203 38.4958 7.29107
1 4.01679 40.4411 7.80519
2 3.3858 40.0571 8.60822
1 3.97001 41.8098 7.41444
1 4.78293 42.2539 6.3827
2 4.76637 43.2918 6.14246
1 3.05672 42.7363 8.10985
1 9.1005 1.40413 44.0452
1 9.84386 2.60613 44.502
1 11.2383 2.66098 44.3426
2 11.7454 1.8938 43.7939
1 11.9707 3.70511 44.8464
2 13.0465 3.68789 44.7247
1 11.3287 4.75594 45.5203
2 11.9328 5.53695 45.9124
1 9.92061 4.76888 45.627
1 9.18758 3.66161 45.1455
2 8.1102 3.64675 45.2901
1 9.20269 5.8474 46.3612
1 6.46175 49.2203 41.9108
1 5.8275 2.00787 41.0653
1 6.31622 2.31306 39.8067
2 7.21399 1.80964 39.4136
1 5.75042 3.33917 39.0182
2 6.19192 3.62564 38.0695
1 4.6609 4.06682 39.4974
2 4.22797 4.84682 38.8565
1 4.12039 3.74265 40.7603
1 4.72051 2.74396 41.5137
2 4.30614 2.49221 42.4978
1 2.97304 4.45786 41.3309
1 3.25023 46.296 10.4109
1 4.26027 47.2157 10.8883
1 4.6821 47.1712 12.2109
2 4.23325 46.431 12.9189
1 5.73388 48.0185 12.6462
2 6.0886 47.9531 13.6729
1 6.33317 48.8791 11.7522
2 7.20896 1.36271 12.0995
1 5.87942 48.9445 10.3962
1 4.89327 48.0621 9.99753
2 4.5168 48.0686 8.98478
1 6.58461 1.61316 9.41898
1 48.0787 42.8291 8.32479
1 47.1712 41.8243 7.7519
1 47.1708 40.489 8.18601
2 47.8968 40.1528 8.94253
1 46.2797 39.5489 7.67044
2 46.2961 38.5585 8.00166
1 45.2891 39.9387 6.76284
2 44.5605 39.2374 6.35674
1 45.2128 41.3003 6.31584
1 46.1852 42.2287 6.83165
2 46.179 43.2311 6.38996
1 44.2745 41.7267 5.24566
1 41.4058 42.6269 49.4756
1 40.8386 42.8579 48.1072
1 39.9166 41.9393 47.5644
2 39.5211 41.1261 48.1418
1 39.4966 42.0362 46.2215
2 38.7749 41.34 45.8031
1 40.0182 43.0658 45.4205
2 39.6632 43.2326 44.4226
1 40.9555 43.9798 45.9437
1 41.3309 43.8745 47.3028
2 42.0733 44.5527 47.7115
1 41.5483 45.0479 45.0476
3 2.97791 41.5077 46.1101
3 2.72437 39.3712 45.5084
3 2.75699 42.4076 44.6424
3 2.24045 40.9881 43.0375
3 47.9028 42.3704 44.1051
3 48.6885 41.0354 42.5367
3 48.1567 40.6074 46.9904
3 47.5251 39.4377 45.2154
3 7.7337 44.3972 4.45092
3 9.743 43.5961 3.99496
3 8.9201 44.3444 1.44111
3 9.49451 42.268 1.15718
3 6.31453 42.238 1.53261
3 8.26147 41.2221 1.26711
3 6.64887 43.1857 4.42603
3 7.38015 41.1682 4.0587
3 7.80705 1.36433 44.1805
3 9.66037 48.6327 43.49
3 6.53582 1.22302 43.1742
3 7.17443 48.2934 41.3866
3 6.03852 46.2498 43.1518
3 7.94788 45.2956 42.5223
3 8.45053 46.7771 45.409
3 9.02441 45.6205 43.5878
3 2.19488 46.7596 9.8557
3 3.37619 45.0569 10.6287
3 2.92299 43.9286 7.72203
3 2.38154 42.3307 9.09389
3 48.0295 44.0681 7.99775
3 48.9663 42.4364 9.17075
3 47.6817 45.4202 9.05407
3 48.0992 44.554 11.0822
3 44.1849 42.9437 4.86596
3 43.5826 40.8455 4.6895
3 44.5946 41.4956 2.05533
3 42.6843 40.4815 1.80076
3 42.0746 43.626 1.58599
3 41.3679 41.528 1.54208
3 42.9231 44.0002 4.5898
3 41.0551 42.8958 4.33738
3 5.77629 4.1128 7.66084
3 7.58413 5.03614 8.50836
3 8.4614 3.85729 5.76749
3 8.85843 5.03735 7.52736
3 7.52603 48.9507 6.95003
3 9.53828 1.68138 7.44108
3 6.52807 1.3363 8.16504
3 7.35894 2.52482 9.82961
3 48.6197 43.5725 46.9798
3 5.81261 45.4294 1.93593
3 5.39275 47.732 45.9962
3 1.6682 46.7259 6.64538
3 45.0212 44.6586 1.89053
3 5.84786 2.48861 4.86462
4 49.1556 42.0028 45.7565
4 1.07545 39.6098 44.1395
4 7.16519 43.911 2.47534
4 9.15432 41.7601 3.13405
4 6.81144 47.6651 44.4104
4 8.71469 47.2474 42.2248
4 1.49053 45.4816 8.28919
4 1.76329 43.7091 10.6012
4 43.7269 43.2775 2.8316
4 41.8465 41.1646 3.59699
4 6.87273 2.68412 6.58401
4 8.84784 3.2926 8.61295
2 5.67 45.7427 49.5194
2 5.17662 45.6673 2.59476
2 44.1749 3.81014 2.07095
2 45.0239 3.99543 49.0267
2 45.4757 47.6473 46.5809
2 44.8917 46.1094 46.8189
2 49.2049 3.43294 45.8601
2 2.49188 3.16493 45.1701
2 6.25558 2.30434 4.01005
2 4.91454 2.73423 4.88968
2 48.204 5.4624 3.75181
2 1.42753 6.02647 3.0738
2 6.11679 3.95682 49.1026
2 4.86519 4.71325 48.2554
2 1.25746 46.3586 5.84439
2 2.20222 47.5466 6.60808
2 45.9207 2.42308 5.47706
2 44.8715 1.23453 4.89506
2 44.7038 45.5203 1.62152
2 45.8387 44.3668 1.51899
2 5.37835 48.4226 46.6859
2 4.72843 47.0294 46.0004
2 47.6813 43.7552 47.1326
2 1.10042 44.193 47.2468
1 46.3238 17.2287 20.3297
1 45.4551 16.5505 21.3125
1 45.1501 15.1525 21.2014
2 45.6334 14.5899 20.4148
1 44.1846 14.5507 22.0464
2 43.9486 13.4726 21.9534
1 43.6068 15.3256 23.0504
2 42.8806 14.8337 23.7428
1 43.929 16.6855 23.2041
1 44.8275 17.299 22.3177
2 45.039 18.3775 22.4157
1 43.3895 17.4518 24.3488
1 45.4923 19.5462 18.0794
1 44.1747 20.1417 17.8568
1 43.3902 19.6406 16.7942
2 43.8352 18.8756 16.2253
1 42.1365 20.2127 16.5118
2 41.5033 19.8521 15.7195
1 41.6668 21.254 17.3158
2 40.6718 21.6404 17.1072
1 42.4553 21.7597 18.3398
1 43.7074 21.1895 18.658
2 44.3479 21.5959 19.4436
1 41.9414 22.9658 19.0967
1 1.15703 19.5335 16.7903
1 2.09515 20.1862 15.8198
1 2.4109 19.5812 14.6228
2 1.86434 18.6898 14.3178
1 3.40234 20.1036 13.8144
2 3.69446 19.5719 12.925
1 4.03881 21.2738 14.1457
2 4.80036 21.6267 13.4517
1 3.69586 21.9439 15.3358
1 2.74534 21.3609 16.1974
2 2.46646 21.8313 17.1485
1 4.3479 23.22 15.6945
1 1.78654 17.2969 19.0831
1 3.1244 16.7037 19.3758
1 3.63566 15.7229 18.5475
2 2.96101 15.2742 17.7701
1 5.00432 15.3708 18.606
2 5.34919 14.6861 17.8409
1 5.8216 15.9085 19.5897
2 6.82927 15.5318 19.6695
1 5.29305 16.8767 20.466
1 3.92023 17.2335 20.3774
2 3.53994 18.0088 20.9616
1 6.18022 17.5939 21.4361
1 41.885 20.3383 28.2531
1 41.3906 21.2985 29.2978
1 40.026 21.2791 29.7427
2 39.2929 20.5809 29.3113
1 39.6384 22.1235 30.781
2 38.6249 22.1652 31.1154
1 40.5567 22.9723 31.3763
2 40.2396 23.5461 32.2028
1 41.8778 23.0129 30.9365
1 42.2845 22.2145 29.8733
2 43.292 22.2209 29.5328
1 42.9002 23.8228 31.6302
1 41.2434 19.8627 25.2747
1 40.3072 20.709 24.478
1 38.9383 20.5401 24.583
2 38.5527 19.7807 25.2477
1 38.056 21.3328 23.8251
2 36.9849 21.2349 23.9564
1 38.5463 22.2304 22.9177
2 37.8031 22.7787 22.339
1 39.9118 22.4521 22.7994
1 40.793 21.7422 23.6474
2 41.8414 21.9471 23.536
1 40.4151 23.4654 21.8529
1 44.1858 17.146 28.4637
1 45.0448 16.5976 29.5448
1 44.5794 15.5357 30.3843
2 43.5681 15.131 30.3138
1 45.4055 15.0162 31.4059
2 44.9612 14.2406 32.0696
1 46.6784 15.5469 31.6155
2 47.3132 15.1417 32.385
1 47.179 16.5427 30.755
1 46.3575 17.0035 29.7318
2 46.728 17.775 29.0839
1 48.5245 17.1168 30.9338
1 40.2122 26.587 22.1795
1 39.674 27.4686 23.2591
1 38.3168 27.4339 23.6963
2 37.6192 26.7209 23.2069
1 37.8276 28.2765 24.6698
2 36.8423 28.0988 25.0666
1 38.7241 29.1936 25.2956
2 38.3953 29.7997 26.158
1 40.0648 29.2903 24.8514
1 40.5127 28.4484 23.8594
2 41.5442 28.4622 23.6267
1 40.9779 30.3173 25.4515
1 41.9981 27.1921 18.5782
1 42.4417 28.2778 17.7217
1 41.6512 28.7796 16.6725
2 40.758 28.2659 16.3548
1 42.1557 29.8307 15.8912
2 41.5557 30.2013 15.0441
1 43.3681 30.4582 16.2168
2 43.783 31.2457 15.6183
1 44.121 30.0132 17.3056
1 43.6881 28.9061 18.0524
2 44.2474 28.5226 18.9265
1 45.3255 30.7197 17.7178
1 49.152 19.6261 32.9774
1 48.168 20.2365 33.935
1 47.8105 19.559 35.1375
2 48.2937 18.6698 35.4139
1 46.9691 20.1673 36.0601
2 46.6974 19.5891 36.9605
1 46.3693 21.3921 35.746
2 45.576 21.725 36.4096
1 46.6499 22.0157 34.5364
1 47.5674 21.4665 33.6611
2 47.8238 21.9551 32.6922
1 45.9407 23.2081 34.1439
1 4.41295 17.6438 29.7695
1 5.53324 17.1855 28.8925
1 6.04714 15.9001 29.0863
2 5.74745 15.2749 29.9166
1 6.9601 15.3604 28.1726
2 7.39549 14.3896 28.3197
1 7.39735 16.105 27.0682
2 7.98002 15.5741 26.3579
1 6.85514 17.3957 26.8245
1 5.96176 17.9386 27.7541
2 5.46568 18.8806 27.4917
1 7.12623 18.0452 25.5149
1 8.62658 20.9329 21.5049
1 9.13345 21.8887 20.4821
1 10.4344 21.8066 20.0112
2 11.115 21.045 20.4034
1 10.8944 22.6687 18.9808
2 11.9139 22.5868 18.657
1 10.0037 23.4907 18.3288
2 10.3704 24.053 17.4772
1 8.65941 23.5629 18.741
1 8.25125 22.8039 19.8655
2 7.20611 22.8145 20.1654
1 7.63176 24.2595 17.9558
3 46.3913 18.5072 20.3118
3 46.8554 16.5301 19.4185
3 46.0206 19.6159 19.2324
3 46.0295 18.8234 17.172
3 48.77 20.238 17.6608
3 49.1692 18.2616 16.7888
3 1.17023 17.9501 19.9991
3 1.28862 17.1998 17.8828
3 43.0384 20.5308 27.7798
3 41.1482 19.3656 27.8922
3 42.4768 19.8282 25.0336
3 40.741 19.1401 26.2102
3 43.5542 18.6857 24.4807
3 42.8402 16.805 25.3024
3 44.7446 17.7078 27.4748
3 42.9249 17.1032 28.5645
3 41.4652 26.552 22.0252
3 39.4449 25.9116 21.4003
3 42.8076 26.3137 18.9996
3 40.7835 27.0917 18.8062
3 42.4855 23.2697 20.1939
3 41.0618 23.7093 18.5837
3 41.6785 23.5314 21.5978
3 39.6034 24.2798 21.2867
3 1.43491 20.3227 32.0466
3 1.22888 18.3968 33.0922
3 49.083 17.7727 30.0073
3 49.0193 17.1371 32.0822
3 4.15424 18.9033 29.8496
3 3.74316 16.8167 30.4866
3 4.05218 19.7518 31.2639
3 3.97033 18.7103 33.2564
3 6.76135 19.2575 25.2792
3 7.79141 17.447 24.5893
3 5.62388 18.1455 22.4325
3 7.42095 17.7518 21.2405
3 7.43664 21.0845 21.9404
3 9.38345 19.9759 21.9478
3 7.87045 20.3989 24.8062
3 9.63814 19.7216 23.6485
3 45.5544 27.3681 32.4312
3 45.0491 26.9248 34.5067
3 44.0429 26.8206 31.623
3 42.464 26.0216 32.9311
3 43.9711 24.1619 31.0491
3 42.67 24.2172 32.839
3 46.4138 24.0031 33.2879
3 44.7554 23.4268 34.5261
3 48.8937 20.9098 20.7736
3 45.7936 20.253 26.1356
3 44.5033 25.7833 21.7373
3 1.73878 20.7154 28.7971
3 4.59426 20.8777 23.395
3 46.9563 25.0763 30.4023
4 48.0758 19.4911 19.4755
4 47.4067 17.3269 17.5354
4 44.026 19.3182 26.4319
4 41.6293 17.4065 26.9891
4 42.6275 25.3138 20.8243
4 39.9295 25.255 19.4174
4 2.16805 19.4497 30.3843
4 2.85968 17.2591 32.3691
4 6.40219 19.8592 23.3287
4 8.71544 18.0841 22.7781
4 45.5015 25.2734 31.848
4 43.8108 25.2329 34.3575
1 3.45374 33.7731 29.1875
1 4.07253 34.4527 28.0275
1 3.90702 35.8075 27.7857
2 3.30153 36.4117 28.4465
1 4.48693 36.403 26.6488
2 4.4686 37.4974 26.5617
1 5.26272 35.6719 25.7767
2 5.68683 36.1829 24.871
1 5.41556 34.3135 25.9886
1 4.84164 33.7204 27.1124
2 4.94919 32.6686 27.2588
1 6.18237 33.4743 25.0497
1 4.87601 31.1124 32.0742
1 6.19752 30.5303 32.3064
1 7.14668 31.2272 33.1075
2 6.92965 32.1887 33.5909
1 8.38923 30.6311 33.3925
2 9.10191 31.1476 34.0433
1 8.71563 29.3662 32.8325
2 9.67872 28.8652 33.0928
1 7.77855 28.7083 32.0104
1 6.50587 29.2734 31.7967
2 5.77934 28.7425 31.1766
1 8.09332 27.4341 31.3914
1 48.794 31.3666 32.7306
1 47.7434 30.8156 33.5932
1 47.4731 31.322 34.8489
2 47.916 32.2492 35.2021
1 46.5498 30.6829 35.6988
2 46.3356 31.1306 36.6825
1 45.9028 29.5156 35.2918
2 45.1355 29.0885 35.8664
1 46.1911 28.9764 34.0515
1 47.0833 29.6264 33.1867
2 47.3023 29.2157 32.1963
1 45.5657 27.6925 33.6481
1 48.7509 33.4989 30.3163
1 47.5583 34.1615 29.819
1 47.2285 35.4561 30.3118
2 47.9343 36.0124 30.9746
1 45.9809 36.0197 30.0645
2 45.7412 36.9884 30.3744
1 45.0642 35.3351 29.2895
2 44.1086 35.8121 29.0551
1 45.3794 34.0837 28.7142
1 46.6585 33.5242 28.9722
2 46.8738 32.5262 28.5948
1 44.3841 33.3626 27.8995
1 7.77906 30.7101 20.9343
1 8.05163 30.1743 19.5976
1 8.92848 30.8574 18.7079
2 9.46789 31.7916 18.964
1 9.14152 30.3824 17.4193
2 9.76984 30.9605 16.7333
1 8.51773 29.2163 16.9887
2 8.70612 28.8303 15.998
1 7.62769 28.5426 17.8706
1 7.49901 28.9787 19.2109
2 6.77618 28.4709 19.8456
1 6.9389 27.3305 17.423
1 8.85228 30.3647 24.9996
1 9.73678 29.6369 25.9274
1 11.0368 30.1296 26.1276
2 11.3281 31.0136 25.612
1 11.8734 29.5019 27.0386
2 12.9111 29.8531 27.173
1 11.3743 28.4577 27.8728
2 12.0426 28.0811 28.6312
1 10.0659 27.9995 27.7037
1 9.23763 28.5499 26.7048
2 8.26148 28.1795 26.5997
1 9.58306 26.8812 28.5827
1 5.69708 32.9671 21.8348
1 4.7775 33.7048 20.9509
1 5.18981 34.9476 20.3593
2 6.19013 35.3485 20.5353
1 4.38255 35.5844 19.4403
2 4.73149 36.4969 18.9901
1 3.12185 35.0577 19.0949
2 2.54328 35.6412 18.3796
1 2.71928 33.844 19.6519
1 3.53551 33.1852 20.5862
2 3.3062 32.1793 21.0078
1 1.45422 33.2565 19.2089
1 9.74176 23.7594 28.283
1 10.3233 22.9235 27.2141
1 11.7208 22.9778 26.9586
2 12.3814 23.5921 27.4945
1 12.2462 22.109 25.9772
2 13.3459 22.0891 25.7925
1 11.4328 21.2729 25.2041
2 11.9094 20.5128 24.548
1 10.0612 21.2639 25.4679
1 9.50478 22.0688 26.4347
2 8.44529 22.0658 26.6382
1 9.15051 20.4085 24.6404
1 7.82487 23.2822 31.7487
1 7.3326 22.1259 32.5347
1 8.13594 21.6799 33.6068
2 9.0116 22.2003 33.9542
1 7.75677 20.5272 34.3253
2 8.33061 20.1801 35.1725
1 6.56314 19.837 33.9697
2 6.19659 18.9816 34.5773
1 5.73779 20.3362 32.9439
1 6.10548 21.53 32.2707
2 5.46034 21.8809 31.4458
1 4.47554 19.5872 32.4792
1 49.2449 31.1144 16.6314
1 2.0545 30.5119 15.7619
1 2.58261 31.2465 14.6872
2 2.14077 32.1599 14.4246
1 3.59795 30.6939 13.8832
2 3.97542 31.2535 13.0635
1 4.12244 29.4474 14.1996
2 4.95513 29.0597 13.6111
1 3.67361 28.7334 15.309
1 2.64159 29.2939 16.0734
2 2.26952 28.6909 16.9131
1 4.29592 27.4309 15.6793
1 45.7634 33.0133 19.992
1 44.6868 33.5474 20.8723
1 44.1199 34.8159 20.6136
2 44.4855 35.3758 19.7385
1 43.0927 35.3073 21.4203
2 42.613 36.2514 21.1753
1 42.6733 34.5848 22.54
2 41.9146 35.0466 23.1831
1 43.2603 33.3471 22.8476
1 44.2415 32.8113 21.9754
2 44.7419 31.8987 22.2094
1 42.9155 32.6816 24.1292
1 41.7285 30.2617 28.5055
1 41.2986 29.2937 29.5749
1 39.9118 29.1728 29.9284
2 39.1341 29.7984 29.4855
1 39.5413 28.2581 30.9381
2 38.4641 28.1922 31.1806
1 40.4889 27.5418 31.6336
2 40.1704 26.8187 32.377
1 41.8442 27.6713 31.3317
1 42.2458 28.5783 30.3131
2 43.3316 28.7064 30.0742
1 42.8394 26.8311 32.0108
3 3.30285 32.5105 29.1438
3 3.13144 34.413 30.2527
3 3.90525 30.4081 31.7337
3 4.74447 32.3732 32.094
3 48.8985 31.0033 31.5414
3 1.43903 32.2315 33.1828
3 48.8314 32.2431 30.2791
3 1.51184 34.2091 30.8234
3 6.71126 30.4191 21.5701
3 8.58853 31.5643 21.4262
3 8.01834 29.705 24.3058
3 8.94645 31.6309 24.8572
3 6.01547 32.183 25.0632
3 6.81754 33.9947 24.0472
3 5.6541 31.6689 21.922
3 6.52955 33.5964 22.557
3 8.44285 23.7649 28.4244
3 10.4932 24.4637 29.0377
3 6.96163 24.0307 31.1913
3 9.0508 23.4435 31.5547
3 7.54732 27.1227 30.2509
3 8.96988 26.6739 31.8655
3 8.33126 26.8001 28.7909
3 10.4263 26.1049 29.1632
3 48.5254 30.345 17.3504
3 49.0979 32.3677 16.7174
3 49.0543 32.4416 19.9852
3 49.2156 33.4075 18.0074
3 45.9554 31.7449 19.9805
3 46.336 33.7675 19.1458
3 45.7675 30.6347 18.9007
3 45.9469 31.3793 16.8374
3 43.2322 31.45 24.329
3 42.367 33.3632 25.0456
3 44.7796 32.6633 26.9407
3 43.1552 33.3335 28.1976
3 42.9149 30.1805 28.0534
3 40.9344 31.087 27.9751
3 42.1904 30.369 25.0721
3 40.5441 31.1073 26.3432
3 4.46306 23.5413 16.9099
3 4.86643 23.9798 14.7913
3 6.73119 24.938 18.543
3 7.6109 24.2404 16.6902
3 6.40722 26.5724 18.2884
3 6.9049 27.0454 16.1981
3 3.86748 26.8231 16.6904
3 5.40671 27.071 15.1328
3 2.5405 29.6468 29.0027
3 4.77895 29.447 24.3778
3 5.40623 24.7889 28.4766
3 48.5402 29.3627 20.3687
3 45.3896 29.6144 26.1375
3 3.49772 25.3103 19.4137
4 2.46111 31.1444 30.3965
4 2.95287 33.4113 32.1617
4 6.35406 30.5884 23.6914
4 8.33293 32.7606 23.1933
4 7.27667 25.0711 29.4698
4 9.98806 25.0763 31.0222
4 47.8096 30.9393 19.2672
4 47.2211 33.0246 17.3791
4 43.8351 30.9535 26.3194
4 41.5471 32.9011 26.9692
4 4.80662 25.3497 17.8136
4 6.44694 25.184 15.2668
2 4.65356 28.5703 23.9949
2 4.22928 29.7803 25.1246
2 46.2597 20.1577 25.2947
2 46.2772 20.6881 26.8656
2 47.8333 25.3121 30.727
2 46.8441 24.6556 29.5504
2 2.14223 20.6849 27.907
2 49.1927 21.308 28.9591
2 2.64345 24.9165 19.242
2 3.72453 25.6764 20.276
2 1.62867 21.1018 20.8367
2 48.3236 21.5647 21.1809
2 4.09195 20.9915 22.5504
2 4.24181 21.2223 24.2649
2 49.1152 29.6065 21.1162
2 48.4137 28.4382 20.1361
2 44.6793 25.4549 22.6506
2 45.04 26.5433 21.4415
2 46.3244 29.9323 26.0681
2 45.2191 28.6872 26.2718
2 5.28484 25.373 27.7268
2 4.77397 24.0706 28.6454
2 2.13393 29.8393 28.1427
2 3.10753 28.8656 29.1236
1 31.0627 45.8557 18.6546
1 31.6518 44.8919 19.5721
1 33.014 44.5329 19.376
2 33.5824 44.9338 18.5382
1 33.6107 43.6379 20.2888
2 34.66 43.3042 20.1211
1 32.8568 43.0451 21.2848
2 33.3389 42.3145 21.9167
1 31.5266 43.4588 21.5372
1 30.8979 44.3301 20.6284
2 29.8883 44.6439 20.7579
1 30.7376 42.813 22.6103
1 28.4392 45.6575 16.6949
1 27.541 44.5055 16.4246
1 27.8477 43.6081 15.3994
2 28.7594 43.7937 14.818
1 27.0393 42.5037 15.1769
2 27.4144 41.7685 14.4834
1 25.8656 42.3407 15.9114
2 25.2415 41.4371 15.7279
1 25.4598 43.2864 16.8376
1 26.3179 44.3658 17.1219
2 26.0271 45.0696 17.8667
1 24.2051 43.0767 17.5768
1 29.0421 1.45926 15.8421
1 28.5725 2.69112 15.2051
1 29.3351 3.2462 14.1711
2 30.2576 2.74003 13.7848
1 28.9778 4.52663 13.6967
2 29.5086 4.94575 12.858
1 27.8928 5.21647 14.2544
2 27.6728 6.27545 13.9845
1 27.1345 4.64017 15.2684
1 27.4677 3.36033 15.7059
2 26.9294 2.9794 16.5322
1 26.0281 5.40008 15.9078
1 31.888 48.9396 18.5322
1 32.9489 1.58671 19.1532
1 34.3201 1.35039 18.9405
2 34.6363 48.744 18.2671
1 35.2669 2.19333 19.4995
2 36.3072 2.10595 19.2274
1 34.9012 3.33487 20.2689
2 35.6822 4.01273 20.592
1 33.5426 3.55715 20.5122
1 32.5826 2.67894 19.9553
2 31.5018 2.84264 20.1742
1 33.0745 4.68631 21.3718
1 28.7789 41.1131 27.0634
1 28.4507 40.7742 28.4697
1 28.8671 39.5484 29.0275
2 29.4215 38.8267 28.4302
1 28.6035 39.2568 30.3586
2 29.0074 38.3867 30.8385
1 27.894 40.1822 31.1386
2 27.7716 39.9137 32.192
1 27.4495 41.3902 30.5977
1 27.7346 41.7033 29.2639
2 27.3887 42.637 28.8833
1 26.8198 42.3951 31.469
1 27.6427 40.3167 22.8885
1 26.685 39.7531 21.9391
1 26.9887 38.5531 21.2603
2 27.8949 38.0013 21.5572
1 26.1758 38.0431 20.2309
2 26.3573 37.0829 19.7163
1 25.0899 38.8312 19.8047
2 24.5231 38.4942 18.9338
1 24.7348 40.0108 20.4766
1 25.511 40.4533 21.5617
2 25.2391 41.3165 22.0748
1 23.673 40.8577 19.943
1 31.3311 42.6499 25.6522
1 32.5051 43.3091 26.2992
1 33.8255 42.7837 26.1502
2 33.9443 41.9144 25.4881
1 34.9067 43.3589 26.8331
2 35.9122 42.9811 26.7221
1 34.7062 44.5047 27.6169
2 35.5794 44.9197 28.1363
1 33.4179 45.0501 27.7519
1 32.3259 44.4648 27.0714
2 31.3062 44.8995 27.1697
1 33.2432 46.2634 28.5773
1 20.0845 41.9912 20.5381
1 18.9962 41.628 21.4391
1 18.0301 40.6383 21.0915
2 18.0873 40.1426 20.1142
1 17.066 40.2816 22.0236
2 16.3673 39.4453 21.8182
1 17.0395 40.8621 23.3127
2 16.2807 40.5443 23.9937
1 17.9963 41.8337 23.6638
1 19.0114 42.1389 22.7557
2 19.865 42.7308 23.0363
1 17.9741 42.3876 25.0513
1 20.4381 44.5542 18.2264
1 19.4571 45.5585 17.7584
1 19.0242 45.6014 16.4419
2 19.304 44.8668 15.6882
1 17.9597 46.4916 16.0876
2 17.5107 46.4216 15.1083
1 17.3721 47.3351 17.0499
2 16.6095 48.055 16.7099
1 17.9797 47.4293 18.3013
1 18.9544 46.516 18.6824
2 19.3686 46.5067 19.6658
1 17.556 48.4397 19.2756
1 32.407 46.8303 31.7889
1 31.7876 45.8593 32.7363
1 32.5686 45.0094 33.4684
2 33.6396 45.0448 33.4322
1 31.9551 44.0357 34.2638
2 32.5816 43.4066 34.913
1 30.5481 43.9016 34.2753
2 30.1095 43.0993 34.8672
1 29.7475 44.7867 33.5298
1 30.3705 45.7945 32.8041
2 29.787 46.4387 32.2296
1 28.2822 44.562 33.3727
1 34.2248 1.8546 28.1758
1 34.7979 2.73539 27.1247
1 36.1595 2.61104 26.7576
2 36.826 1.96408 27.3197
1 36.6842 3.37456 25.7138
2 37.7286 3.27119 25.5327
1 35.8592 4.20921 24.9833
2 36.2688 4.69746 24.0821
1 34.4776 4.34624 25.2787
1 33.9556 3.59844 26.3713
2 32.8918 3.69606 26.641
1 33.5819 5.20912 24.4454
1 30.8443 7.89252 20.8934
1 30.0761 8.35594 19.7122
1 30.6821 9.15037 18.7144
2 31.6781 9.52079 18.84
1 29.9969 9.49964 17.5264
2 30.4927 10.1123 16.7848
1 28.7036 9.06337 17.3049
2 28.2238 9.34425 16.3364
1 28.0788 8.2617 18.2919
1 28.7086 7.99917 19.5203
2 28.132 7.4745 20.3046
1 26.7299 7.71549 18.0235
3 29.805 46.1784 18.8033
3 31.7806 46.3957 17.776
3 28.4669 46.1376 17.8681
3 29.2909 46.0583 15.8446
3 28.1748 48.9513 16.5135
3 30.2851 1.17817 15.7827
3 30.6421 49.1315 18.7744
3 32.194 48.126 17.5899
3 28.7441 42.2781 26.6411
3 29.1763 40.1877 26.2627
3 27.2765 41.1447 23.7898
3 28.859 40.0333 22.7874
3 29.6817 43.3766 23.0649
3 31.1552 41.7239 23.1516
3 30.1362 43.0518 25.8309
3 31.543 41.7392 24.7934
3 20.5392 43.1832 20.6119
3 20.4969 41.1926 19.6432
3 20.638 44.4217 19.4655
3 20.9886 43.7483 17.4038
3 23.724 44.0002 18.2775
3 23.6396 41.9337 17.5691
3 23.2407 41.828 20.6588
3 23.3539 40.8353 18.7198
3 31.7202 47.8305 31.3815
3 33.5299 46.5774 31.2697
3 32.5456 47.2192 28.1933
3 33.9717 46.3981 29.6474
3 33.0269 2.04104 28.5643
3 34.8762 49.1206 28.6884
3 32.4032 2.41379 30.0258
3 33.688 1.70244 31.6734
3 32.3697 5.40498 24.6886
3 34.1043 5.81327 23.4392
3 31.8535 4.73678 21.7436
3 33.9108 5.56274 21.8164
3 30.2365 7.47388 21.9265
3 32.0822 7.76003 20.7983
3 31.5132 6.85774 24.9829
3 32.668 8.51237 24.1291
3 24.1082 45.9524 32.8481
3 24.997 45.231 34.7484
3 24.4513 43.4453 31.2505
3 24.1304 42.4657 33.1907
3 26.1412 43.3405 30.9626
3 26.9082 42.3513 32.7567
3 27.5697 45.4279 32.7753
3 27.7657 43.4717 33.8115
3 27.6326 48.8804 19.5452
3 27.0691 44.3527 24.707
3 23.5138 44.9174 21.3203
3 29.8067 48.6653 29.147
3 29.3116 4.7179 23.3956
3 25.664 46.4961 30.3093
4 28.9428 48.0848 18.1961
4 30.9527 47.4208 16.0629
4 28.3883 42.7493 24.5898
4 30.1241 40.2712 24.3765
4 22.5539 43.6813 19.9861
4 21.5974 41.8054 17.9427
4 31.8672 48.6664 29.5093
4 34.5407 48.2694 30.5695
4 30.9393 5.91435 23.1652
4 33.4001 7.5369 22.3806
4 25.653 45.143 31.8416
4 25.7146 43.3766 34.2891
1 18.9898 5.51037 31.1962
1 18.7143 6.79729 30.5409
1 17.9123 7.7607 31.161
2 17.4231 7.56815 32.1529
1 17.7954 9.05051 30.6253
2 17.2154 9.74624 31.1862
1 18.3452 9.33921 29.3597
2 18.2007 10.3171 28.959
1 19.0487 8.32595 28.6771
1 19.2414 7.06916 29.2813
2 19.9025 6.40265 28.7963
1 19.7823 8.63517 27.4218
1 21.5254 4.79342 33.2045
1 22.5743 5.68286 33.7291
1 22.5552 6.15128 35.0382
2 21.7857 5.79026 35.7253
1 23.5978 6.95516 35.5386
2 23.5549 7.23826 36.6081
1 24.688 7.27719 34.7509
2 25.4091 7.91954 35.1699
1 24.735 6.84558 33.4196
1 23.6528 6.03704 32.8847
2 23.6472 5.6838 31.8503
1 25.8636 7.20333 32.6039
1 21.0971 1.70027 33.9923
1 21.9111 48.9589 34.7836
1 22.0351 49.1193 36.1785
2 21.4641 1.64525 36.7181
1 22.9104 48.3096 36.9184
2 22.9545 48.4006 37.9881
1 23.5666 47.2878 36.2656
2 24.1212 46.5857 36.8616
1 23.491 47.1144 34.8713
1 22.6588 47.9552 34.1324
2 22.5559 47.8202 33.0869
1 24.2252 46.0421 34.1116
1 17.8243 1.37747 31.6857
1 16.8835 48.4643 31.3081
1 15.8116 48.1452 32.1365
2 15.5023 48.7623 32.9615
1 15.0438 47.0255 31.9
2 14.1518 46.7391 32.5084
1 15.3751 46.1533 30.8584
2 14.7319 45.2972 30.642
1 16.4973 46.4104 30.043
1 17.2304 47.5932 30.2527
2 18.1243 47.7883 29.6593
1 16.9689 45.3608 29.1013
1 22.2137 10.4441 23.2087
1 22.8654 10.7977 21.9543
1 23.0951 12.1609 21.5739
2 22.8091 12.9599 22.2986
1 23.7164 12.4322 20.3553
2 23.8503 13.46 20.0274
1 24.0407 11.3627 19.4683
2 24.4579 11.6374 18.4778
1 23.8977 10.0178 19.8616
1 23.4009 9.76764 21.1676
2 23.253 8.73377 21.4483
1 24.0803 8.8699 18.9221
1 23.1369 10.5361 26.4782
1 24.3122 11.0451 27.219
1 24.5558 12.4046 27.3285
2 23.9811 13.1138 26.7445
1 25.5846 12.8594 28.1376
2 25.7429 13.9265 28.2179
1 26.3753 11.9787 28.8744