2544
 Atoms. Timestep: 0
1 7.47028 15.8942 39.8767
1 7.29805 15.6282 38.4458
1 7.93491 16.4401 37.5031
2 8.5348 17.2797 37.8457
1 7.75836 16.2063 36.1189
2 8.22575 16.8027 35.3767
1 6.96645 15.117 35.6996
2 6.84129 14.9402 34.6285
1 43.3979 14.2279 36.6102
1 43.6384 14.4678 37.9975
2 43.1934 13.794 38.7222
1 42.4231 13.1774 36.1964
1 42.3443 16.8059 43.4101
1 40.9641 17.1022 43.7549
1 40.4632 18.4213 43.771
2 41.1016 19.251 43.6324
1 39.1095 18.7418 6.81374
2 38.7495 19.744 6.87748
1 38.2281 17.6659 6.99327
2 37.2124 17.844 7.33329
1 38.706 16.3528 6.99455
1 40.0685 16.0906 6.7692
2 40.4147 15.0157 43.9542
1 37.7953 15.164 7.09264
1 8.02445 16.4299 7.82311
1 8.37387 16.45 9.24742
1 9.09818 17.5264 9.76119
2 9.30665 18.3383 9.08763
1 9.59849 17.5177 11.0316
2 10.1346 18.3739 11.3574
1 9.44474 16.384 11.8128
2 9.81293 16.4255 12.8347
1 8.71992 15.2634 11.3638
1 8.14704 15.3212 10.0771
2 7.62294 14.4814 9.67047
1 8.67342 14.0501 12.1564
1 10.3272 15.7697 42.9645
1 11.7293 15.542 43.336
1 12.4451 16.6234 6.72538
2 11.9649 17.5437 6.97764
1 13.8324 16.4694 6.98687
2 14.3851 17.2747 7.42737
1 14.4605 15.2619 6.71538
2 15.5139 15.1555 6.98787
1 13.7331 14.1328 43.4352
1 12.3721 14.2967 43.1162
2 11.7778 13.4916 42.6724
1 14.3491 12.7765 43.3782
1 40.3627 8.90925 34.4569
1 40.0498 7.64199 33.7316
1 39.5447 7.66768 32.4051
2 39.3501 8.63537 31.9224
1 39.2508 43.4693 31.749
2 38.8421 43.5213 30.7143
1 39.4736 42.2268 32.3845
2 39.1648 41.3015 31.8878
1 39.9378 42.2024 33.7051
1 40.2451 43.3955 34.3494
2 40.5294 43.3864 35.4054
1 40.1204 40.8953 34.4562
1 38.6602 12.0031 37.0683
1 37.5973 12.6016 37.8529
1 36.7224 13.5059 37.2636
2 36.8015 13.7876 36.2275
1 35.8416 14.2148 38.0585
2 35.1902 15.008 37.6817
1 35.7546 13.9759 39.431
2 35.0602 14.5088 40.0197
1 36.631 13.0747 40.0256
1 37.515 12.3922 39.2183
2 38.236 11.6941 39.7106
1 36.6295 12.8599 41.4901
1 43.0308 10.5037 34.5237
1 7.40873 10.2095 34.0143
1 7.89668 10.832 32.8582
2 7.31364 11.5075 32.3005
1 9.2148 10.565 32.4158
2 9.60627 11.1677 31.5922
1 10.0504 9.69557 33.0993
2 11.0508 9.57928 32.7398
1 9.54247 9.06277 34.2519
1 8.23144 9.30997 34.6854
2 7.87978 8.81655 35.5232
1 10.438 8.09923 35.0219
1 34.9939 10.857 43.3614
1 34.0131 9.73581 43.1705
1 32.6524 9.97974 42.9097
2 32.2821 10.9943 42.7955
1 31.7665 8.90892 42.8214
2 30.7279 9.12267 42.6081
1 32.2215 7.61032 42.8741
2 31.5309 6.77828 42.6856
1 33.583 7.32973 43.1452
1 34.4544 8.41103 43.3141
2 35.4709 8.25768 43.6136
1 34.027 42.9549 43.2543
1 36.0058 11.6874 9.20885
1 35.6544 11.0767 10.4847
1 34.4834 11.4628 11.1647
2 33.9124 12.2752 10.8061
1 34.0804 10.8018 12.2904
2 33.1748 11.0681 12.8193
1 34.8311 9.73929 12.7761
2 34.4719 9.17359 13.6397
1 36.0045 9.32113 12.1248
1 36.3941 9.98683 10.9532
2 37.2109 9.6217 10.3513
1 36.7806 8.18369 12.6096
1 10.1696 41.7214 35.2275
1 9.22044 40.7542 34.6149
1 9.59064 40.0456 33.4729
2 10.5565 40.2182 32.9905
1 8.71605 39.1692 32.8377
2 9.05317 38.674 31.9812
1 7.45003 38.9402 33.323
2 6.81853 38.2447 32.8082
1 7.0459 39.6321 34.4886
1 7.92419 40.522 35.1428
2 7.60553 41.0577 36.0228
1 42.7447 39.2931 35.088
1 13.7348 7.96891 37.2338
1 14.7187 8.94664 37.7667
1 15.9028 9.27078 37.075
2 16.0684 8.8476 36.0906
1 16.8082 10.2206 37.588
2 17.686 10.5214 37.0224
1 16.5761 10.7767 38.8674
2 17.3087 11.3976 39.316
1 15.4386 10.3867 39.6029
1 14.4857 9.52351 39.008
2 13.6591 9.18056 39.6042
1 15.3939 10.6184 41.0923
1 14.6994 11.3029 8.85012
1 14.2701 11.9018 10.1259
1 15.1583 12.6838 10.8796
2 16.1832 12.8327 10.5104
1 14.7698 13.2014 12.1106
2 15.423 13.8292 12.7323
1 13.4803 12.9716 12.6281
2 13.2116 13.438 13.5558
1 12.5848 12.1617 11.9106
1 12.9609 11.6717 10.6274
2 12.2434 11.0799 10.0252
1 11.214 11.93 12.4453
3 6.80488 15.1941 40.7312
3 8.24237 16.8022 40.3346
3 42.9067 15.6973 43.6813
3 43.0203 17.7003 42.7873
3 7.24856 15.5343 7.35934
3 8.61572 17.2171 6.97467
3 9.59603 14.7703 42.6319
3 9.75989 16.9454 43.1704
3 41.0103 8.91374 35.5599
3 39.862 10.009 33.9923
3 39.2717 10.9761 37.5191
3 39.1127 12.5861 36.0379
3 42.1071 12.2917 37.0566
3 42.133 13.0014 34.9723
3 42.5269 9.78392 35.4544
3 42.4283 11.5813 34.1233
3 36.0538 10.7101 6.79455
3 34.7041 12.0523 43.0688
3 36.574 11.0062 8.28212
3 35.6206 12.8856 8.95147
3 38.2381 14.0096 7.37176
3 36.5788 15.3052 6.8458
3 37.5764 12.2073 42.0614
3 35.6969 13.3454 42.2098
3 9.76331 42.698 35.9372
3 11.4242 41.5923 35.0264
3 9.90922 7.31641 35.8728
3 11.6553 7.97332 34.6988
3 12.4879 8.06582 37.5242
3 14.0942 7.04578 36.4082
3 12.1284 41.7423 37.7794
3 13.8833 42.302 36.5213
3 14.2572 10.6392 41.6924
3 16.4561 10.6649 41.7659
3 13.7483 11.7801 42.857
3 15.47 12.5656 43.958
3 13.9334 10.5006 8.28022
3 15.6926 11.7881 8.19976
3 15.329 8.1552 43.4256
3 17.1179 9.07616 7.21966
3 41.2847 37.7878 37.7833
3 41.672 36.9179 35.8111
3 38.5479 39.4924 37.2461
3 38.3825 37.7063 36.0086
3 40.7639 40.902 35.5775
3 39.6884 39.7775 34.0407
3 42.1689 40.0945 35.9244
3 42.194 38.1721 34.8335
3 7.16072 12.611 42.6264
3 41.836 9.5677 38.8198
3 39.6527 11.2194 7.23701
3 10.2308 43.5571 39.2689
3 12.2456 8.68264 43.5264
3 40.8257 40.5945 39.0285
4 7.44172 14.7124 42.663
4 8.0262 17.6881 42.205
4 41.1977 10.4534 37.0264
4 40.3507 11.9829 34.5369
4 37.7749 12.0646 6.83627
4 35.2847 13.8213 7.03602
4 11.0662 43.4841 37.4196
4 12.7567 43.2003 34.9593
4 14.0315 9.74781 43.5495
4 16.8324 10.9108 43.8001
4 40.6158 39.6475 37.2603
4 40.0514 37.8835 34.7964
1 43.4922 34.7521 9.17329
1 7.01371 34.7573 10.5572
1 7.19964 33.5562 11.2279
2 7.06577 32.5861 10.7855
1 7.65899 33.5734 12.5335
2 7.88601 32.6428 13.0366
1 8.10018 34.7683 13.1166
2 8.54703 34.7094 14.1337
1 7.88961 36.0284 12.4657
1 7.35415 35.9863 11.1648
2 7.16795 36.9395 10.661
1 8.31107 37.2684 13.0432
1 7.90433 34.2111 43.5724
1 9.36722 33.9323 43.4849
1 9.82511 32.6217 43.2734
2 9.18177 31.7758 43.1757
1 11.2053 32.3724 43.257
2 11.6191 31.3806 43.1215
1 12.0958 33.4505 43.415
2 13.1525 33.2111 43.3605
1 11.6269 34.7397 43.5727
1 10.269 34.9797 43.6404
2 9.90395 35.9954 43.8559
1 12.5785 35.8856 43.5825
1 42.7907 34.5933 41.3535
1 42.9473 34.6391 39.87
1 43.5523 33.599 39.1844
2 7.07022 32.7805 39.6689
1 43.6252 33.6332 37.7757
2 7.16187 32.8482 37.2519
1 42.9929 34.6886 37.0416
2 42.9688 34.663 35.946
1 42.4098 35.7472 37.7694
1 42.4084 35.7258 39.1705
2 42.0181 36.5611 39.7558
1 41.7384 36.8659 37.0901
1 39.7439 35.1642 6.79839
1 38.2614 35.3327 6.74626
1 37.4364 34.1349 43.8472
2 37.8414 33.1268 43.8899
1 36.0282 34.2976 43.6903
2 35.3817 33.3955 43.5756
1 35.4371 35.5463 43.6536
2 34.3704 35.5326 43.477
1 36.2673 36.6915 43.7952
1 37.6409 36.5721 6.79033
2 38.2941 37.4184 6.9012
1 35.6936 38.034 43.5959
1 9.66614 41.8163 15.1916
1 9.90291 43.1171 15.8487
1 10.2679 43.231 17.2038
2 10.3945 42.3353 17.7547
1 10.5516 7.4976 17.7839
2 10.8435 7.55298 18.8499
1 10.3494 8.67444 17.0355
2 10.4742 9.66007 17.4873
1 9.87165 8.56979 15.7268
1 9.75942 7.34336 15.1148
2 9.57147 7.2501 14.0506
1 9.5717 9.81073 14.9181
1 11.4638 38.2258 13.1039
1 12.6245 37.5756 12.4341
1 13.3094 36.5177 13.0504
2 13.0209 36.1972 14.0657
1 14.321 35.8336 12.3519
2 14.8949 35.0391 12.8438
1 14.6066 36.1612 11.0395
2 15.3108 35.627 10.4752
1 13.9282 37.1918 10.4028
1 12.963 37.9154 11.121
2 12.3628 38.6321 10.5705
1 14.1204 37.4545 8.95349
1 6.79117 39.0255 14.9917
1 42.3312 39.0207 15.2836
1 41.836 38.3054 16.396
2 42.4365 37.6419 16.9955
1 40.4611 38.3358 16.7176
2 40.0856 37.6563 17.4744
1 39.6352 39.2081 15.9875
2 38.5585 39.2896 16.21
1 40.1077 40.0099 14.9543
1 41.4372 39.8501 14.5479
2 41.8056 40.4382 13.7011
1 39.2858 41.0492 14.3049
1 15.7651 40.0094 43.9164
1 16.6231 41.2299 6.87383
1 17.9896 41.0524 7.16002
2 18.3822 40.063 7.30026
1 18.8316 42.1492 7.27622
2 19.884 42.0194 7.50059
1 18.2917 43.4538 7.26446
2 19.0197 7.33604 7.40324
1 16.9609 43.6717 6.86584
1 16.1179 42.5506 6.70839
2 15.1188 42.6488 43.658
1 16.4762 8.07652 6.73779
1 14.3893 38.472 41.2396
1 14.602 38.8671 39.8375
1 15.4675 38.1713 38.981
2 16.045 37.3232 39.3379
1 15.703 38.5962 37.6775
2 16.4021 38.0448 37.0427
1 15.0283 39.7448 37.1669
2 15.0888 40.0135 36.1201
1 14.1261 40.4242 37.9947
1 13.9224 39.9904 39.3059
2 13.2222 40.4968 39.9897
1 13.3574 41.5786 37.4594
1 39.5894 7.92666 14.3748
1 40.339 9.03724 14.9555
1 39.9609 9.5924 16.1736
2 39.0254 9.22198 16.6435
1 40.6709 10.6807 16.6918
2 40.3286 11.1877 17.5896
1 41.8112 11.1439 16.0461
2 42.3456 11.9813 16.4707
1 42.2917 10.5011 14.8768
1 41.546 9.45906 14.3484
2 41.8395 8.98568 13.4169
1 43.541 10.8953 14.2264
1 36.3625 41.3159 12.5293
1 35.3562 40.4599 11.877
1 34.5097 39.6346 12.629
2 34.7161 39.5358 13.6728
1 33.4295 38.9607 12.055
2 32.7661 38.411 12.6975
1 33.2599 39.0024 10.6347
2 32.4987 38.433 10.1542
1 34.1803 39.7847 9.84681
1 35.2226 40.4641 10.4758
2 35.8192 41.2033 9.91125
1 34.0736 39.853 8.34555
1 34.7854 39.1968 40.6686
1 35.0764 38.5466 39.3903
1 34.3457 37.4468 38.9637
2 33.5201 37.1099 39.6237
1 34.6331 36.7946 37.7692
2 34.0396 35.9729 37.4053
1 35.7411 37.1593 36.9929
2 36.0145 36.6764 36.0855
1 36.5456 38.238 37.458
1 36.1619 38.9776 38.6079
2 36.8071 39.7914 38.961
1 37.8825 38.5014 36.8468
3 6.68508 35.7455 8.41804
3 42.8138 33.7763 8.69661
3 7.47197 35.3356 6.8378
3 7.07594 33.3479 43.1368
3 42.6425 35.6808 41.9848
3 42.8418 33.4856 42.0117
3 40.4826 36.0827 7.22235
3 40.2403 34.0186 43.6332
3 9.0317 41.7993 14.0964
3 10.0191 40.7338 15.7425
3 10.9605 39.2848 12.6455
3 10.8968 37.689 14.1065
3 7.84535 38.389 12.645
3 9.10708 37.2369 14.0535
3 7.21047 39.5402 13.8859
3 7.6418 38.5758 15.8248
3 14.6366 40.1579 43.3564
3 16.0529 38.9289 7.1059
3 13.9793 39.3358 42.0876
3 14.6906 37.3123 41.6327
3 12.1966 37.0548 43.1729
3 13.7136 35.8012 6.90644
3 13.8307 38.5794 8.50287
3 14.3393 36.4995 8.14157
3 39.4087 7.90563 13.1014
3 38.9734 7.14208 15.1564
3 39.8503 42.0037 13.7057
3 38.0471 41.0964 14.4981
3 37.0594 42.0804 11.7684
3 36.6407 41.2092 13.774
3 37.9836 8.02819 12.1971
3 36.2732 7.39933 13.4819
3 35.0416 40.35 7.68653
3 32.995 39.4479 7.77708
3 36.3531 39.1199 43.91
3 34.4988 38.1151 43.1512
3 35.3472 40.2689 40.961
3 34.0602 38.5973 41.5692
3 35.261 42.7437 43.3273
3 33.2737 41.9428 43.0864
3 7.80569 13.1243 11.9502
3 9.57884 13.8946 13.0346
3 10.4605 11.0169 11.9109
3 10.7387 12.713 13.3516
3 8.86026 9.68475 13.8395
3 9.88921 10.9659 15.3997
3 7.24741 10.0597 13.6074
3 6.96691 12.0844 14.3772
3 42.45 38.3544 6.78898
3 8.83335 41.2149 11.2448
3 11.4253 40.0452 7.04712
3 40.0447 42.6406 10.5578
3 36.9851 42.5132 42.954
3 7.70887 10.338 10.4201
4 42.5236 36.2251 6.76454
4 42.1542 33.2672 6.76388
4 9.04427 40.095 12.9257
4 9.68293 38.6456 15.551
4 13.0961 38.8558 43.8931
4 15.3065 37.0254 43.6392
4 38.8282 43.0984 12.2337
4 37.1989 43.0125 14.7084
4 35.6639 40.8335 42.9571
4 33.0183 39.8046 43.0335
4 8.41487 11.0805 12.1891
4 8.99646 12.6478 14.5881
2 9.61411 41.6503 10.8499
2 7.94839 41.3811 10.9089
2 41.3329 8.85874 39.21
2 42.6185 9.95303 39.2907
2 41.2093 41.4707 39.0646
2 40.4505 40.1997 39.8435
2 9.49959 7.11584 39.4488
2 10.6192 42.9949 39.9784
2 7.8267 10.791 9.59565
2 7.29831 9.47653 10.3686
2 7.26171 12.1359 41.8121
2 7.03196 12.0713 43.3612
2 11.609 8.8879 42.8603
2 12.0023 8.17439 7.0284
2 40.9332 42.3273 10.7096
2 39.7143 42.8974 9.68591
2 40.2944 11.0448 43.7737
2 39.9587 11.0742 8.13508
2 37.2435 42.9916 42.1177
2 37.6666 42.3492 43.6357
2 10.5594 39.8451 6.73919
2 11.5326 40.8632 7.53069
2 42.6667 38.7902 7.62858
2 42.1449 38.8701 43.3339
1 9.04606 22.5952 16.024
1 8.60468 21.19 15.9745
1 9.01949 20.3373 14.9171
2 9.60746 20.714 14.0836
1 8.65466 18.965 14.9146
2 9.00967 18.2717 14.1395
1 7.82818 18.4804 15.9308
2 7.55156 17.4562 15.8744
1 7.31886 19.3362 16.9433
1 7.7166 20.6852 16.926
2 7.31419 21.2875 17.7306
1 43.4246 18.7748 17.9679
1 7.45249 25.6089 15.7443
1 43.0574 25.9844 15.4052
1 42.7225 26.3481 14.0933
2 43.4927 26.5447 13.3608
1 41.4262 26.4895 13.6783
2 41.1567 26.7714 12.6886
1 40.3725 26.2554 14.5912
2 39.3615 26.3858 14.2429
1 40.6525 26.0163 15.9586
1 42.001 25.792 16.3377
2 42.219 25.464 17.3377
1 39.5404 25.984 16.9621
1 11.3919 27.2212 16.2575
1 12.1695 28.4797 16.4523
1 12.9931 28.9936 15.4524
2 12.9448 28.6293 14.4332
1 13.7218 30.1374 15.6883
2 14.2353 30.5862 14.8429
1 13.811 30.7427 16.9434
2 14.4858 31.569 17.1042
1 13.0438 30.2106 18.0004
1 12.1429 29.1132 17.745
2 11.6163 28.6297 18.5738
1 13.1618 30.717 19.4069
1 12.2376 24.1768 17.0245
1 13.5885 23.6575 17.433
1 14.5968 23.4388 16.4872
2 14.4031 23.6538 15.421
1 15.8823 23.0657 16.906
2 16.6024 22.8391 16.0822
1 16.1608 22.8289 18.2576
2 17.133 22.4383 18.5367
1 15.1267 23.0352 19.2241
1 13.8487 23.418 18.7953
2 13.0635 23.5995 19.5358
1 15.4109 22.8082 20.6566
1 39.9899 16.7128 21.2632
1 39.0687 16.1549 22.2696
1 38.6637 14.7877 22.1578
2 39.0209 14.1706 21.3589
1 37.8455 14.1948 23.1427
2 37.508 13.1888 22.9874
1 37.4318 14.9397 24.2497
2 36.8352 14.4645 24.9959
1 37.7894 16.2912 24.3545
1 38.5723 16.9123 23.3355
2 38.7494 17.9434 23.3828
1 37.4915 17.0451 25.6283
1 40.0931 19.2235 18.29
1 39.118 20.0794 17.5865
1 38.4018 19.6294 16.4794
2 38.4299 18.593 16.1013
1 37.5305 20.4869 15.7895
2 36.9125 20.0897 14.9785
1 37.3134 21.7761 16.2138
2 36.5644 22.3571 15.6951
1 37.9757 22.2455 17.3712
1 38.9263 21.4036 17.9951
2 39.4203 21.7507 18.8606
1 37.7571 23.5785 17.865
1 43.1801 15.921 21.0125
1 6.90049 15.0807 21.9474
1 7.06816 13.6971 21.6784
2 6.70437 13.2296 20.7656
1 7.6648 12.8597 22.6544
2 7.73414 11.75 22.4979
1 8.13209 13.4086 23.8571
2 8.62563 12.7559 24.6153
1 8.09747 14.7801 24.0664
1 7.4455 15.6124 23.1176
2 7.33002 16.6502 23.2965
1 8.51162 15.3705 25.3276
1 35.7907 26.453 20.6079
1 34.7389 26.6956 21.6098
1 33.3877 26.3951 21.3129
2 33.0801 26.1271 20.2831
1 32.4196 26.5704 22.3151
2 31.3857 26.3721 22.0597
1 32.7981 26.8618 23.6332
2 32.0469 26.9265 24.4004
1 34.137 27.1774 23.9326
1 35.0786 27.1144 22.9045
2 36.0987 27.355 23.1593
1 34.5675 27.5472 25.3489
1 38.5308 28.5213 18.3966
1 39.0618 29.9078 18.2433
1 38.9971 30.5857 16.9967
2 38.6509 30.0545 16.1473
1 39.377 31.9133 16.9275
2 39.3961 32.4467 15.9738
1 39.8539 32.5801 18.0609
2 40.2037 33.6056 17.9626
1 39.8643 31.9692 19.3186
1 39.5183 30.5939 19.3614
2 39.6231 30.1203 20.3552
1 40.2961 32.6837 20.5489
1 7.03802 15.8786 28.3702
1 42.6586 15.4527 28.7291
1 42.3914 14.1372 29.2079
2 43.2039 13.4913 29.4527
1 41.079 13.7178 29.4598
2 40.8985 12.6973 29.8639
1 40.0407 14.6269 29.2612
2 39.0457 14.2813 29.3693
1 40.2995 15.9589 28.8803
1 41.5993 16.3644 28.6448
2 41.8399 17.3491 28.2387
1 39.2128 16.8996 28.5928
1 11.7503 17.2266 26.7551
1 13.0937 17.5907 26.2726
1 14.0439 16.6118 26.2719
2 13.8671 15.6109 26.7499
1 15.2835 16.8352 25.7154
2 15.9823 15.9469 25.6461
1 15.5812 18.0606 25.1445
2 16.5597 18.2159 24.7161
1 14.6365 19.075 25.0582
1 13.3936 18.8745 25.6953
2 12.6076 19.6397 25.7127
1 14.9076 20.3818 24.4429
1 16.0904 25.2734 23.5449
1 16.4926 26.6921 23.6665
1 17.8322 27.099 23.827
2 18.5918 26.3606 23.9362
1 18.2016 28.4525 23.9178
2 19.2515 28.7671 23.964
1 17.19 29.4396 23.7833
2 17.5481 30.4783 23.7296
1 15.8531 29.0553 23.5386
1 15.537 27.6821 23.4924
2 14.4859 27.4261 23.3505
1 14.8383 30.0432 23.1774
3 8.5293 23.4298 16.8493
3 9.92716 22.9807 15.2027
3 7.65353 24.7872 16.6627
3 8.45842 26.1037 15.1073
3 10.3549 27.037 16.9591
3 11.7796 26.3384 15.4373
3 11.2645 24.1105 17.8485
3 12.0497 24.6711 15.8618
3 40.2761 17.9625 21.3275
3 40.6281 15.9547 20.4462
3 41.0797 19.7424 18.9549
3 40.0531 17.9675 18.1412
3 42.711 19.5378 18.7234
3 43.2788 17.4946 18.0151
3 43.4549 17.1751 20.9742
3 42.1944 15.4587 20.3443
3 36.9716 26.7176 20.8826
3 35.518 25.8902 19.497
3 39.1783 27.6385 19.1085
3 37.4116 28.2211 17.8246
3 39.7834 26.2188 18.191
3 38.324 25.8164 16.5772
3 38.1499 23.92 19.0194
3 37.3374 24.4645 17.0251
3 7.31179 17.112 28.2838
3 7.84341 14.9825 27.9264
3 8.88219 16.5854 25.3599
3 8.42982 14.7245 26.4131
3 10.9434 18.0872 27.2596
3 11.4245 16.0075 26.7511
3 10.1219 18.0867 28.7068
3 9.71704 16.1557 29.7048
3 14.2516 21.3837 24.825
3 15.8708 20.5286 23.6051
3 14.4274 22.7072 21.4427
3 16.5927 22.7382 21.0866
3 14.8663 24.9585 23.568
3 17.0182 24.3554 23.4836
3 15.0931 22.7563 25.4209
3 17.1825 23.2562 24.7796
3 37.6587 20.0012 29.3162
3 36.7466 18.1751 30.0946
3 36.8292 20.7123 27.9469
3 35.3333 19.2379 27.265
3 37.546 18.3221 25.6762
3 37.2828 16.4165 26.7302
3 39.4934 18.1457 28.5467
3 38.0333 16.497 28.1949
3 8.94043 25.7053 19.6323
3 42.5691 19.9228 22.165
3 39.5595 25.2705 21.5834
3 8.04342 19.4531 26.2344
3 12.0335 23.2502 23.5042
3 39.861 20.5727 26.5025
4 9.44838 25.2103 17.6926
4 10.2869 25.0362 14.7871
4 42.0895 18.6653 20.561
4 41.525 16.5204 18.5804
4 38.5212 25.771 19.8397
4 36.5183 26.3568 17.698
4 8.83639 17.7846 27.0455
4 9.85294 15.1527 27.8901
4 14.0736 23.0735 23.5229
4 17.0144 22.2209 22.986
4 38.3217 19.3979 27.3489
4 36.1598 17.5109 28.2258
1 41.8391 27.0688 34.1438
1 42.3888 28.4245 34.1603
1 42.1869 29.2328 35.2984
2 41.6822 28.8384 36.1681
1 42.675 30.524 35.3399
2 42.5024 31.1656 36.1973
1 43.2815 31.0883 34.2152
2 6.69553 32.0554 34.2062
1 43.5575 30.2852 33.0925
1 43.0514 28.9815 33.0458
2 43.2424 28.3411 32.1954
1 7.36963 30.8475 31.9906
1 43.2948 24.3386 35.247
1 7.71915 24.1772 35.686
1 8.08562 24.3042 37.0244
2 7.31901 24.4031 37.7956
1 9.44874 24.1434 37.389
2 9.67919 24.1735 38.4503
1 10.4352 23.9356 36.4025
2 11.4675 23.7306 36.7066
1 10.0902 23.8856 35.0458
1 8.74727 23.9913 34.7022
2 8.48698 23.9028 33.6547
1 11.1538 23.7162 34.0173
1 39.3257 22.5613 33.5368
1 38.4067 21.4349 33.2719
1 37.5509 20.9087 34.2511
2 37.5032 21.3261 35.2525
1 36.5719 19.9789 33.9156
2 35.8587 19.6364 34.6524
1 36.4597 19.5038 32.6618
2 35.6608 18.7708 32.5036
1 37.344 19.882 31.6524
1 38.3195 20.8642 31.9717
2 38.8521 21.2926 31.1612
1 37.2469 19.3153 30.295
1 38.8379 26.491 34.0342
1 37.7153 27.3706 33.5774
1 36.8595 27.9816 34.5366
2 37.0181 27.8853 35.6186
1 35.7282 28.6532 34.0541
2 35.0297 29.0785 34.7399
1 35.4516 28.7652 32.6793
2 34.5692 29.2839 32.3707
1 36.305 28.1886 31.7286
1 37.4401 27.5309 32.1858
2 38.0534 26.9614 31.4839
1 35.9621 28.2086 30.3107
1 10.9556 32.5948 28.8044
1 11.9462 33.0957 27.8367
1 12.5521 34.3228 28.0703
2 12.4419 34.7841 29.032
1 13.3216 34.9555 27.1417
2 13.8475 35.904 27.3578
1 13.4653 34.3733 25.8891
2 14.0855 34.9071 25.2153
1 12.8287 33.1614 25.5771
1 12.0988 32.5108 26.5677
2 11.7046 31.5141 26.349
1 13.0812 32.5478 24.2479
1 10.7098 30.6049 31.8487
1 11.7098 29.7522 32.5298
1 12.5059 30.2832 33.5575
2 12.4298 31.3433 33.8484
1 13.3504 29.4706 34.2877
2 13.9628 29.9295 35.0731
1 13.506 28.1107 33.9712
2 14.1997 27.4986 34.5342
1 12.6736 27.5268 32.9772
1 11.7947 28.3931 32.2255
2 11.1909 27.9573 31.4293
1 12.7169 26.0496 32.6821
1 7.90771 33.9275 29.0698
1 7.44826 34.8961 28.0839
1 7.89724 36.2243 28.0392
2 8.53269 36.636 28.8573
1 7.48294 37.0837 27.0276
2 7.77533 38.08 27.0221
1 43.6504 36.5735 26.0177
2 43.3491 37.2546 25.2266
1 43.1256 35.2782 26.017
1 43.5505 34.4488 27.0618
2 43.2031 33.3979 27.0332
1 42.2694 34.7749 24.909
1 14.9206 23.2295 30.4783
1 16.0151 23.2179 29.5065
1 17.3487 23.3426 29.8777
2 17.6456 23.4211 30.911
1 18.3648 23.3596 28.9077
2 19.411 23.484 29.1994
1 18.054 23.2603 27.542
2 18.8291 23.3067 26.776
1 16.7107 23.1494 27.1404
1 15.7126 23.0985 28.1606
2 14.6578 23.0261 27.8905
1 16.2977 23.1065 25.7039
1 12.052 21.0144 32.3819
1 11.6585 19.6326 32.2898
1 12.0344 18.7536 33.3053
2 12.6277 19.0898 34.131
1 11.6281 17.4126 33.2268
2 11.9409 16.6961 33.9437
1 11.0014 16.9257 32.0632
2 10.8161 15.8457 31.9024
1 10.6511 17.8499 31.0442
1 10.9249 19.2036 31.2205
2 10.6881 19.9443 30.4639
1 10.0711 17.3595 29.7588
1 43.5318 34.845 21.8239
1 7.94475 35.2233 21.6728
1 8.32012 36.5865 21.3829
2 7.58578 37.3766 21.3366
1 9.64769 36.946 21.384
2 9.90934 37.9914 21.3121
1 10.6313 35.9727 21.5825
2 11.6694 36.2792 21.6976
1 10.268 34.6194 21.7427
1 8.93373 34.2622 21.7526
2 8.66309 33.2312 21.8675
1 11.2974 33.5443 21.852
1 39.0456 33.1659 23.7177
1 37.7822 32.9044 24.4512
1 36.8534 33.9311 24.619
2 36.9298 34.8828 24.1083
1 35.7643 33.7757 25.4631
2 35.0859 34.5893 25.6011
1 35.5379 32.5496 26.1053
2 34.6336 32.4242 26.7007
1 36.3902 31.4569 25.8773
1 37.4569 31.6282 24.9931
2 38.0952 30.783 24.902
1 36.0794 30.1368 26.4964
1 34.6261 25.3238 27.5552
1 34.1457 23.9183 27.3651
1 32.8958 23.6622 26.8213
2 32.1928 24.4408 26.6688
1 32.5239 22.3457 26.4938
2 31.5584 22.1598 26.0523
1 33.4016 21.2778 26.7673
2 33.0388 20.2893 26.5373
1 34.6919 21.5343 27.3225
1 35.056 22.8576 27.6079
2 36.0352 23.0737 28.0281
1 35.6634 20.4461 27.5058
3 41.3965 26.594 33.057
3 41.6265 26.4364 35.2538
3 42.9941 24.0231 34.0399
3 42.4285 24.9025 36.008
3 39.9623 23.0668 32.5823
3 39.438 23.0575 34.7245
3 39.6379 26.0196 33.1672
3 38.9697 26.2189 35.2523
3 10.4776 31.4028 28.7095
3 10.4548 33.4314 29.6154
3 9.79437 30.0949 31.1172
3 10.7746 31.8344 31.9895
3 8.11484 30.1008 31.3062
3 7.42151 32.1013 31.7729
3 7.49915 32.729 29.0302
3 8.96379 34.195 29.73
3 13.7512 22.8683 30.1401
3 15.1487 23.6526 31.6439
3 11.2737 21.9526 31.9713
3 13.184 21.3404 32.844
3 10.8822 23.2427 32.8582
3 12.3575 24.0227 34.3003
3 12.2248 25.6077 31.5843
3 13.23 25.2394 33.5268
3 43.1893 33.6055 21.8013
3 42.739 35.6692 22.4119
3 41.9886 33.5388 24.7675
3 42.0686 35.5599 23.9022
3 39.7117 32.2345 23.185
3 39.4636 34.3588 23.6343
3 40.2737 32.0425 21.6652
3 40.6483 33.9021 20.493
3 36.6653 29.0669 26.0991
3 35.1662 30.0532 27.376
3 36.85 28.2587 29.4212
3 34.7565 27.9985 29.987
3 35.8745 25.5738 27.6105
3 33.8021 26.2989 27.5436
3 35.7862 27.6874 25.5957
3 33.7542 27.4863 26.326
3 12.9998 29.9026 20.3623
3 13.3435 31.9455 19.6325
3 13.6133 29.8775 23.5258
3 15.1616 30.9261 22.3002
3 12.7004 31.3346 24.019
3 13.4435 33.3034 23.2968
3 10.9502 32.3312 21.8799
3 12.537 33.8563 21.943
3 40.9428 23.4764 31.2476
3 7.75494 29.6122 28.1715
3 10.8421 23.7763 29.3631
3 42.9084 30.8387 23.2078
3 38.8418 26.8255 27.3214
3 10.5212 29.1173 22.1799
4 41.2412 24.4912 33.0809
4 40.2885 24.7403 35.8234
4 8.6487 30.9747 29.4779
4 9.21192 33.0391 31.4117
4 12.0496 23.6296 31.0206
4 13.9983 23.214 33.2797
4 41.7972 32.5408 22.9927
4 40.7266 35.1659 22.277
4 36.8332 27.4541 27.5026
4 34.0949 28.4577 28.1103
4 12.1203 30.4996 22.1392
4 14.2027 32.5611 21.409
2 7.85164 28.7036 28.4125
2 7.71434 29.7975 27.2427
2 42.8886 20.8593 21.9912
2 42.3383 19.6247 23.0761
2 40.6564 20.6173 27.0169
2 39.6005 21.3853 26.0236
2 7.77097 19.3827 25.3493
2 7.80524 20.2053 26.759
2 10.3339 28.64 21.3716
2 10.0204 28.9527 23.0015
2 8.08505 26.0596 19.8437
2 9.57975 25.6847 20.3662
2 11.7747 24.1171 23.1603
2 11.4591 22.5188 23.6895
2 6.75899 30.8268 22.8004
2 42.6361 30.0948 23.7595
2 39.755 24.3695 21.7497
2 39.7761 25.9356 22.2577
2 38.9664 26.1187 26.7121
2 39.6484 27.3235 27.5692
2 10.5381 22.9817 28.9036
2 10.4947 24.6659 29.1534
2 41.5304 22.7906 30.9045
2 40.5709 24.0669 30.5718
1 28.5301 42.1354 16.8367
1 29.0035 40.7575 17.0082
1 30.132 40.2661 16.3311
2 30.7392 40.8917 15.7002
1 30.5577 38.9296 16.5185
2 31.4881 38.6704 16.0515
1 29.8177 38.0627 17.3505
2 30.1494 37.0422 17.4063
1 28.76 38.5296 18.0461
1 28.3479 39.8911 17.8905
2 27.4611 40.1663 18.3918
1 28.0339 37.6222 19.0073
1 25.3936 6.85312 15.7267
1 24.0075 43.3797 15.3135
1 23.7041 43.1414 13.9764
2 24.4271 43.4812 13.224
1 22.4836 42.5671 13.5777
2 22.3113 42.4997 12.5258
1 21.5762 42.1271 14.5162
2 20.6856 41.7309 14.1689
1 21.8514 42.3462 15.8704
1 23.063 42.9961 16.2802
2 23.2912 43.0671 17.3261
1 20.919 41.8411 16.8807
1 26.818 9.99778 16.4291
1 26.5857 11.4677 16.5772
1 26.9437 12.3254 15.5276
2 27.3188 11.9029 14.593
1 26.8616 13.7008 15.6814
2 27.2904 14.3672 14.9141
1 26.3554 14.2506 16.8086
2 26.478 15.3251 17.0259
1 25.9314 13.4479 17.8677
1 26.0814 12.0419 17.7629
2 25.739 11.38 18.5232
1 25.3904 14.0341 19.1371
1 30.2383 8.02454 17.1964
1 31.6043 8.43699 17.6526
1 32.7167 8.44923 16.7672
2 32.6014 8.08541 15.7692
1 33.9552 8.94871 17.2082
2 34.7629 8.98641 16.4534
1 34.1115 9.49752 18.4593
2 35.0869 9.90435 18.7982
1 33.0452 9.45985 19.3549
1 31.793 8.92999 18.9472
2 31.0171 8.83669 19.6891
1 33.1345 10.094 20.7054
1 26.7987 34.897 23.121
1 26.6099 34.1106 24.3762
1 26.4909 32.7062 24.3424
2 26.633 32.1739 23.4017
1 26.3711 31.9999 25.5507
2 26.4517 30.9091 25.5768
1 26.3118 32.6513 26.7562
2 26.2319 32.0173 27.6489
1 26.2795 34.0308 26.8234
1 26.4284 34.7826 25.6106
2 26.4486 35.8792 25.665
1 26.2882 34.6946 28.1346
1 24.5946 35.6098 19.6518
1 23.2427 35.6409 19.0794
1 22.8449 34.6701 18.1456
2 23.4382 33.7963 17.911
1 21.6278 34.8466 17.4404
2 21.3832 34.1 16.7066
1 20.76 35.9073 17.7633
2 19.8564 35.9764 17.2122
1 21.1296 36.8783 18.6589
1 22.3464 36.7002 19.3663
2 22.6723 37.437 20.0826
1 20.383 38.1493 18.8028
1 29.3882 36.2392 21.5283
1 30.7684 36.2256 22.0018
1 31.6721 35.2404 21.6148
2 31.4256 34.509 20.8647
1 32.9662 35.2461 22.1268
2 33.7311 34.5907 21.7181
1 33.3164 36.1575 23.135
2 34.3051 36.0543 23.5935
1 32.4128 37.188 23.5243
1 31.1832 37.2692 22.8629
2 30.4955 38.0298 23.1649
1 32.8891 38.1471 24.5727
1 18.0424 39.5851 20.567
1 17.3039 38.9135 21.6907
1 16.2778 38.0252 21.4425
2 16.058 37.7362 20.4101
1 15.5566 37.3615 22.4658
2 14.7989 36.6325 22.2289
1 15.8852 37.656 23.7832
2 15.3915 37.1845 24.5929
1 16.9374 38.5297 24.0769
1 17.6211 39.1527 23.0049
2 18.4012 39.9016 23.2349
1 17.3076 38.85 25.4759
1 17.5512 42.3132 19.206
1 16.5153 43.3106 19.5301
1 15.2825 43.3156 18.8842
2 14.9835 42.532 18.1885
1 14.3674 7.32662 19.1753
2 13.4622 7.32176 18.6269
1 14.6004 8.26635 20.1627
2 13.836 8.99349 20.3947
1 15.8414 8.26022 20.8129
1 16.8342 7.34129 20.4443
2 17.7963 7.35646 20.9965
1 16.1569 9.24102 21.8639
1 32.6693 37.5985 27.8417
1 32.1001 36.4158 28.5642
1 32.8432 35.2304 28.7158
2 33.8458 35.1862 28.3495
1 32.255 34.1216 29.3089
2 32.7584 33.1699 29.3676
1 30.9458 34.1751 29.7771
2 30.5356 33.3114 30.3138
1 30.2034 35.317 29.6507
1 30.7856 36.4297 29.0298
2 30.175 37.3192 28.9169
1 28.7901 35.3869 30.0557
1 34.536 41.6773 25.2614
1 35.2207 42.8133 24.6359
1 36.5519 42.6463 24.1492
2 37.123 41.7474 24.3079
1 37.1737 6.68558 23.3975
2 38.1067 43.5616 22.9909
1 36.492 7.89759 23.1592
2 36.9645 8.71965 22.6577
1 35.1645 8.06004 23.6713
1 34.575 7.00032 24.3867
2 33.5617 7.07096 24.766
1 34.4321 9.30695 23.4661
1 31.4964 13.5243 22.5247
1 30.6858 14.6984 22.2166
1 31.3043 15.8596 21.7054
2 32.3796 15.9774 21.7024
1 30.5308 16.8921 21.1498
2 31.039 17.7259 20.6899
1 29.1572 16.7993 21.0757
2 28.6454 17.5868 20.5395
1 28.5167 15.6508 21.5875
1 29.2476 14.6413 22.2411
2 28.7792 13.7636 22.6456
1 27.0413 15.5765 21.5521
3 27.5939 42.5664 17.5807
3 29.0758 42.9204 15.9565
3 25.5024 7.60741 16.7353
3 26.3568 43.5907 15.0344
3 26.1004 9.13614 17.0711
3 27.8158 9.59894 15.7356
3 29.2101 8.4265 17.8555
3 30.093 7.39618 16.0838
3 27.1462 36.1214 23.1267
3 26.5337 34.3392 22.0294
3 24.8488 36.2496 20.7061
3 25.5568 35.0139 19.0562
3 27.408 38.1832 19.9531
3 28.2294 36.3359 19.0274
3 28.4256 36.709 22.2557
3 29.1282 35.7172 20.3674
3 18.781 40.6113 20.7432
3 18.0192 39.0342 19.3982
3 18.5545 42.1223 20.0064
3 17.4375 41.6025 18.1576
3 20.8032 42.4105 18.0233
3 20.2571 40.7656 16.6396
3 20.9969 39.1788 19.1808
3 19.1277 38.1875 18.4958
3 32.0416 38.7092 27.8406
3 33.7045 37.4329 27.108
3 32.3584 39.2883 24.6569
3 33.7401 37.7704 25.4469
3 33.5543 41.9027 26.0423
3 35.028 40.5177 25.1997
3 33.3544 41.732 27.6077
3 34.3696 39.9936 28.5559
3 33.39 9.58265 24.1815
3 34.7981 10.1487 22.5798
3 32.072 10.338 21.335
3 34.2604 10.4611 21.178
3 31.1027 12.6932 23.3941
3 32.608 13.3647 21.9598
3 33.1389 11.0342 25.0705
3 34.7596 12.4582 24.4517
3 25.3568 37.5295 31.7272
3 26.3993 35.8743 32.7057
3 24.359 36.2331 29.2407
3 24.2785 34.5498 30.6674
3 25.7004 35.8267 28.3097
3 26.7828 34.065 29.1634
3 28.2333 36.5213 30.111
3 28.0808 34.3296 30.1786
3 27.0678 7.8126 19.9691
3 25.3775 38.7397 22.4803
3 22.0378 41.6715 20.7885
3 30.2075 41.0207 26.3418
3 30.0994 9.69691 23.7652
3 26.6332 39.0224 29.2355
4 27.2972 7.56944 17.892
4 28.2062 7.63786 15.0416
4 26.4669 37.2544 21.5717
4 27.177 34.7463 20.1202
4 20.4161 41.1534 19.5913
4 18.56 40.04 17.5517
4 32.1936 40.3267 26.4632
4 34.732 39.1296 26.6738
4 31.829 10.7347 23.3764
4 34.1649 12.165 22.5432
4 26.1898 37.1212 29.8911
4 26.2159 34.4111 31.1547
1 23.2531 9.05099 35.2263
1 23.1053 10.5654 35.2658
1 22.7021 11.1788 36.4967
2 22.5509 10.552 37.3694
1 22.5084 12.5822 36.5169
2 22.3258 13.0688 37.4722
1 22.5904 13.2968 35.3101
2 22.4681 14.3914 35.3979
1 22.9315 12.6883 34.0858
1 23.1972 11.3272 34.0837
2 23.4711 10.8987 33.1501
1 22.951 13.4591 32.8407
1 25.769 7.0784 35.2748
1 27.1505 7.46119 35.5777
1 27.7776 7.03018 36.7641
2 27.1944 43.4484 37.4839
1 29.164 7.25161 36.9051
2 29.6933 6.86374 37.7899
1 29.9082 7.89763 35.9292
2 30.9634 8.00947 36.0847
1 29.2555 8.46033 34.8039
1 27.8776 8.20666 34.6127
2 27.4382 8.46427 33.6718
1 30.0366 9.21511 33.7852
1 24.2411 41.0852 35.0965
1 24.7683 39.7323 35.1867
1 25.0462 39.1285 36.4329
2 24.8226 39.6089 37.3598
1 25.6279 37.8553 36.4606
2 25.8236 37.388 37.3934
1 25.8602 37.1539 35.2675
2 26.279 36.1652 35.333
1 25.5966 37.7214 34.0457
1 25.0371 39.0058 34.0013
2 24.8538 39.4953 33.0893
1 25.745 36.9561 32.7759
1 20.8781 43.1621 33.639
1 19.5385 42.7298 33.2107
1 18.5105 42.5619 34.1246
2 18.6612 42.8766 35.1117
1 17.3531 41.8479 33.7619
2 16.594 41.7397 34.4789
1 17.2216 41.3648 32.4489
2 16.4065 40.6813 32.1258
1 18.2315 41.5928 31.4899
1 19.3764 42.285 31.8681
2 20.2314 42.32 31.1995
1 18.1538 40.9574 30.1317
1 24.0641 15.9664 28.5318
1 24.4122 16.8612 27.386
1 24.4317 18.2337 27.5675
2 24.1521 18.6633 28.4821
1 24.6802 19.0887 26.4815
2 24.6171 20.1564 26.6291
1 24.8466 18.5628 25.215
2 24.9747 19.2612 24.3984
1 24.8102 17.1642 24.9974
1 24.6028 16.307 26.0889
2 24.516 15.2383 25.8969
1 24.8625 16.5844 23.653
1 25.3916 14.4594 31.3188
1 26.7264 14.5002 31.9678
1 27.2193 15.6778 32.5364
2 26.5966 16.5614 32.5652
1 28.5 15.7337 33.0827
2 28.889 16.7099 33.4421
1 29.3213 14.6229 33.0071
2 30.3561 14.6651 33.3371
1 28.8622 13.4392 32.4357