Created on Thu Sep 19 16:24:29 2024 

        1728 atoms
        2064 bonds
        3696 angles
        5088 dihedrals
        3024 impropers

           5 atom types
           8 bond types
          12 angle types
           3 dihedral types
           1 improper types
           0.000000  36.180302 xlo xhi
           0.000000  36.180302 ylo yhi
           0.000000  36.180302 zlo zhi
           0.000000   0.000000   0.000000 xy xz yz

Masses

    1    12.010700000 # C_R
    2    63.546000000 # Cu4+2
    3     1.007940000 # H_
    4    14.006700000 # N_R
    5    15.999400000 # O_2

Bond Coeffs

    1      462.655054        1.379256  # C_R C_R
    2      561.491352        1.422196  # C_R N_R
    3      357.440381        1.081418  # C_R H_
    4      391.669513        1.458000  # C_R C_R
    5      714.557442        1.269010  # C_R O_2
    6      663.718927        1.345073  # C_R N_R
    7       70.296579        3.032715  # Cu4+2 Cu4+2
    8      221.999373        2.029549  # Cu4+2 O_2

Angle Coeffs

    1      111.297508              -1               3 # C_R C_R C_R
    2      141.337441              -1               3 # C_R C_R N_R
    3       57.289016              -1               3 # C_R C_R H_
    4      102.183280              -1               3 # C_R C_R C_R
    5      137.714246              -1               3 # C_R C_R O_2
    6      206.778426              -1               3 # O_2 C_R O_2
    7      153.699352              -1               3 # C_R C_R N_R
    8       52.958227               1               4 # Cu4+2 Cu4+2 O_2
    9      111.434476               1               4 # O_2 Cu4+2 O_2
   10      110.133094              -1               3 # C_R N_R C_R
   11      120.000516              -1               3 # C_R N_R C_R
   12       77.210179              -1               3 # C_R O_2 Cu4+2

Dihedral Coeffs

    1        3.368555              -1               2 # C_R C_R C_R C_R
    2        1.250000              -1               2 # C_R C_R N_R C_R
    3        6.737110              -1               2 # C_R C_R O_2 Cu4+2

Improper Coeffs

    1        2.000000        1.000000       -1.000000        0.000000               0 # C_R C_R C_R N_R

Pair Coeffs

    1        0.105000        3.430851 # C_R C_R
    2        0.005000        3.113691 # Cu4+2 Cu4+2
    3        0.044000        2.571134 # H_ H_
    4        0.069000        3.260689 # N_R N_R
    5        0.060000        3.118146 # O_2 O_2

Atoms

       1      444        1     0.00000    1.00219   25.84721    6.22663
       2      444        1     0.00000   35.17811   10.33309   29.95367
       3      444        1     0.00000   17.08796   10.33309   24.31678
       4      444        1     0.00000   19.09235   25.84721   11.86352
       5      444        1     0.00000   35.17811    7.75706   11.86352
       6      444        1     0.00000    1.00219   28.42325   24.31678
       7      444        1     0.00000   19.09235   28.42325   29.95367
       8      444        1     0.00000   17.08796    7.75706    6.22663
       9      444        1     0.00000    6.22663    1.00219   25.84721
      10      444        1     0.00000   29.95367   35.17811   10.33309
      11      444        1     0.00000   24.31678   17.08796   10.33309
      12      444        1     0.00000   11.86352   19.09235   25.84721
      13      444        1     0.00000   11.86352   35.17811    7.75706
      14      444        1     0.00000   24.31678    1.00219   28.42325
      15      444        1     0.00000   29.95367   19.09235   28.42325
      16      444        1     0.00000    6.22663   17.08796    7.75706
      17      444        1     0.00000   25.84721    6.22663    1.00219
      18      444        1     0.00000   10.33309   29.95367   35.17811
      19      444        1     0.00000   10.33309   24.31678   17.08796
      20      444        1     0.00000   25.84721   11.86352   19.09235
      21      444        1     0.00000    7.75706   11.86352   35.17811
      22      444        1     0.00000   28.42325   24.31678    1.00219
      23      444        1     0.00000   28.42325   29.95367   19.09235
      24      444        1     0.00000    7.75706    6.22663   17.08796
      25      444        1     0.00000    0.99134   25.32621    4.92414
      26      444        1     0.00000   35.18896   10.85409   31.25616
      27      444        1     0.00000   17.09881   10.85409   23.01429
      28      444        1     0.00000   19.08149   25.32621   13.16601
      29      444        1     0.00000   35.18896    7.23606   13.16601
      30      444        1     0.00000    0.99134   28.94424   23.01429
      31      444        1     0.00000   19.08149   28.94424   31.25616
      32      444        1     0.00000   17.09881    7.23606    4.92414
      33      444        1     0.00000    4.92414    0.99134   25.32621
      34      444        1     0.00000   31.25616   35.18896   10.85409
      35      444        1     0.00000   23.01429   17.09881   10.85409
      36      444        1     0.00000   13.16601   19.08149   25.32621
      37      444        1     0.00000   13.16601   35.18896    7.23606
      38      444        1     0.00000   23.01429    0.99134   28.94424
      39      444        1     0.00000   31.25616   19.08149   28.94424
      40      444        1     0.00000    4.92414   17.09881    7.23606
      41      444        1     0.00000   25.32621    4.92414    0.99134
      42      444        1     0.00000   10.85409   31.25616   35.18896
      43      444        1     0.00000   10.85409   23.01429   17.09881
      44      444        1     0.00000   25.32621   13.16601   19.08149
      45      444        1     0.00000    7.23606   13.16601   35.18896
      46      444        1     0.00000   28.94424   23.01429    0.99134
      47      444        1     0.00000   28.94424   31.25616   19.08149
      48      444        1     0.00000    7.23606    4.92414   17.09881
      49      444        1     0.00000    1.74027   25.21043    7.23244
      50      444        1     0.00000   34.44003   10.96987   28.94786
      51      444        1     0.00000   16.34988   10.96987   25.32259
      52      444        1     0.00000   19.83042   25.21043   10.85771
      53      444        1     0.00000   34.44003    7.12028   10.85771
      54      444        1     0.00000    1.74027   29.06002   25.32259
      55      444        1     0.00000   19.83042   29.06002   28.94786
      56      444        1     0.00000   16.34988    7.12028    7.23244
      57      444        1     0.00000    7.23244    1.74027   25.21043
      58      444        1     0.00000   28.94786   34.44003   10.96987
      59      444        1     0.00000   25.32259   16.34988   10.96987
      60      444        1     0.00000   10.85771   19.83042   25.21043
      61      444        1     0.00000   10.85771   34.44003    7.12028
      62      444        1     0.00000   25.32259    1.74027   29.06002
      63      444        1     0.00000   28.94786   19.83042   29.06002
      64      444        1     0.00000    7.23244   16.34988    7.12028
      65      444        1     0.00000   25.21043    7.23244    1.74027
      66      444        1     0.00000   10.96987   28.94786   34.44003
      67      444        1     0.00000   10.96987   25.32259   16.34988
      68      444        1     0.00000   25.21043   10.85771   19.83042
      69      444        1     0.00000    7.12028   10.85771   34.44003
      70      444        1     0.00000   29.06002   25.32259    1.74027
      71      444        1     0.00000   29.06002   28.94786   19.83042
      72      444        1     0.00000    7.12028    7.23244   16.34988
      73      444        1     0.00000    1.85605   24.28060    4.60213
      74      444        1     0.00000   34.32425   11.89970   31.57817
      75      444        1     0.00000   16.23410   11.89970   22.69229
      76      444        1     0.00000   19.94620   24.28060   13.48802
      77      444        1     0.00000   34.32425    6.19045   13.48802
      78      444        1     0.00000    1.85605   29.98985   22.69229
      79      444        1     0.00000   19.94620   29.98985   31.57817
      80      444        1     0.00000   16.23410    6.19045    4.60213
      81      444        1     0.00000    4.60213    1.85605   24.28060
      82      444        1     0.00000   31.57817   34.32425   11.89970
      83      444        1     0.00000   22.69229   16.23410   11.89970
      84      444        1     0.00000   13.48802   19.94620   24.28060
      85      444        1     0.00000   13.48802   34.32425    6.19045
      86      444        1     0.00000   22.69229    1.85605   29.98985
      87      444        1     0.00000   31.57817   19.94620   29.98985
      88      444        1     0.00000    4.60213   16.23410    6.19045
      89      444        1     0.00000   24.28060    4.60213    1.85605
      90      444        1     0.00000   11.89970   31.57817   34.32425
      91      444        1     0.00000   11.89970   22.69229   16.23410
      92      444        1     0.00000   24.28060   13.48802   19.94620
      93      444        1     0.00000    6.19045   13.48802   34.32425
      94      444        1     0.00000   29.98985   22.69229    1.85605
      95      444        1     0.00000   29.98985   31.57817   19.94620
      96      444        1     0.00000    6.19045    4.60213   16.23410
      97      444        1     0.00000    2.58689   24.14312    6.90320
      98      444        1     0.00000   33.59341   12.03719   29.27710
      99      444        1     0.00000   15.50326   12.03719   24.99335
     100      444        1     0.00000   20.67704   24.14312   11.18695
     101      444        1     0.00000   33.59341    6.05296   11.18695
     102      444        1     0.00000    2.58689   30.12734   24.99335
     103      444        1     0.00000   20.67704   30.12734   29.27710
     104      444        1     0.00000   15.50326    6.05296    6.90320
     105      444        1     0.00000    6.90320    2.58689   24.14312
     106      444        1     0.00000   29.27710   33.59341   12.03719
     107      444        1     0.00000   24.99335   15.50326   12.03719
     108      444        1     0.00000   11.18695   20.67704   24.14312
     109      444        1     0.00000   11.18695   33.59341    6.05296
     110      444        1     0.00000   24.99335    2.58689   30.12734
     111      444        1     0.00000   29.27710   20.67704   30.12734
     112      444        1     0.00000    6.90320   15.50326    6.05296
     113      444        1     0.00000   24.14312    6.90320    2.58689
     114      444        1     0.00000   12.03719   29.27710   33.59341
     115      444        1     0.00000   12.03719   24.99335   15.50326
     116      444        1     0.00000   24.14312   11.18695   20.67704
     117      444        1     0.00000    6.05296   11.18695   33.59341
     118      444        1     0.00000   30.12734   24.99335    2.58689
     119      444        1     0.00000   30.12734   29.27710   20.67704
     120      444        1     0.00000    6.05296    6.90320   15.50326
     121      444        1     0.00000    2.71714   23.72704    5.56815
     122      444        1     0.00000   33.46316   12.45326   30.61215
     123      444        1     0.00000   15.37301   12.45326   23.65830
     124      444        1     0.00000   20.80729   23.72704   12.52200
     125      444        1     0.00000   33.46316    5.63689   12.52200
     126      444        1     0.00000    2.71714   30.54341   23.65830
     127      444        1     0.00000   20.80729   30.54341   30.61215
     128      444        1     0.00000   15.37301    5.63689    5.56815
     129      444        1     0.00000    5.56815    2.71714   23.72704
     130      444        1     0.00000   30.61215   33.46316   12.45326
     131      444        1     0.00000   23.65830   15.37301   12.45326
     132      444        1     0.00000   12.52200   20.80729   23.72704
     133      444        1     0.00000   12.52200   33.46316    5.63689
     134      444        1     0.00000   23.65830    2.71714   30.54341
     135      444        1     0.00000   30.61215   20.80729   30.54341
     136      444        1     0.00000    5.56815   15.37301    5.63689
     137      444        1     0.00000   23.72704    5.56815    2.71714
     138      444        1     0.00000   12.45326   30.61215   33.46316
     139      444        1     0.00000   12.45326   23.65830   15.37301
     140      444        1     0.00000   23.72704   12.52200   20.80729
     141      444        1     0.00000    5.63689   12.52200   33.46316
     142      444        1     0.00000   30.54341   23.65830    2.71714
     143      444        1     0.00000   30.54341   30.61215   20.80729
     144      444        1     0.00000    5.63689    5.56815   15.37301
     145      444        1     0.00000    3.88938   22.95278    5.08333
     146      444        1     0.00000   32.29092   13.22752   31.09697
     147      444        1     0.00000   14.20077   13.22752   23.17348
     148      444        1     0.00000   21.97953   22.95278   13.00682
     149      444        1     0.00000   32.29092    4.86263   13.00682
     150      444        1     0.00000    3.88938   31.31767   23.17348
     151      444        1     0.00000   21.97953   31.31767   31.09697
     152      444        1     0.00000   14.20077    4.86263    5.08333
     153      444        1     0.00000    5.08333    3.88938   22.95278
     154      444        1     0.00000   31.09697   32.29092   13.22752
     155      444        1     0.00000   23.17348   14.20077   13.22752
     156      444        1     0.00000   13.00682   21.97953   22.95278
     157      444        1     0.00000   13.00682   32.29092    4.86263
     158      444        1     0.00000   23.17348    3.88938   31.31767
     159      444        1     0.00000   31.09697   21.97953   31.31767
     160      444        1     0.00000    5.08333   14.20077    4.86263
     161      444        1     0.00000   22.95278    5.08333    3.88938
     162      444        1     0.00000   13.22752   31.09697   32.29092
     163      444        1     0.00000   13.22752   23.17348   14.20077
     164      444        1     0.00000   22.95278   13.00682   21.97953
     165      444        1     0.00000    4.86263   13.00682   32.29092
     166      444        1     0.00000   31.31767   23.17348    3.88938
     167      444        1     0.00000   31.31767   31.09697   21.97953
     168      444        1     0.00000    4.86263    5.08333   14.20077
     169      444        1     0.00000    4.10285   21.57431    5.23167
     170      444        1     0.00000   32.07746   14.60599   30.94863
     171      444        1     0.00000   13.98730   14.60599   23.32182
     172      444        1     0.00000   22.19300   21.57431   12.85848
     173      444        1     0.00000   32.07746    3.48416   12.85848
     174      444        1     0.00000    4.10285   32.69614   23.32182
     175      444        1     0.00000   22.19300   32.69614   30.94863
     176      444        1     0.00000   13.98730    3.48416    5.23167
     177      444        1     0.00000    5.23167    4.10285   21.57431
     178      444        1     0.00000   30.94863   32.07746   14.60599
     179      444        1     0.00000   23.32182   13.98730   14.60599
     180      444        1     0.00000   12.85848   22.19300   21.57431
     181      444        1     0.00000   12.85848   32.07746    3.48416
     182      444        1     0.00000   23.32182    4.10285   32.69614
     183      444        1     0.00000   30.94863   22.19300   32.69614
     184      444        1     0.00000    5.23167   13.98730    3.48416
     185      444        1     0.00000   21.57431    5.23167    4.10285
     186      444        1     0.00000   14.60599   30.94863   32.07746
     187      444        1     0.00000   14.60599   23.32182   13.98730
     188      444        1     0.00000   21.57431   12.85848   22.19300
     189      444        1     0.00000    3.48416   12.85848   32.07746
     190      444        1     0.00000   32.69614   23.32182    4.10285
     191      444        1     0.00000   32.69614   30.94863   22.19300
     192      444        1     0.00000    3.48416    5.23167   13.98730
     193      444        1     0.00000    4.85178   23.70895    4.38505
     194      444        1     0.00000   31.32852   12.47135   31.79525
     195      444        1     0.00000   13.23837   12.47135   22.47520
     196      444        1     0.00000   22.94193   23.70895   13.70510
     197      444        1     0.00000   31.32852    5.61880   13.70510
     198      444        1     0.00000    4.85178   30.56150   22.47520
     199      444        1     0.00000   22.94193   30.56150   31.79525
     200      444        1     0.00000   13.23837    5.61880    4.38505
     201      444        1     0.00000    4.38505    4.85178   23.70895
     202      444        1     0.00000   31.79525   31.32852   12.47135
     203      444        1     0.00000   22.47520   13.23837   12.47135
     204      444        1     0.00000   13.70510   22.94193   23.70895
     205      444        1     0.00000   13.70510   31.32852    5.61880
     206      444        1     0.00000   22.47520    4.85178   30.56150
     207      444        1     0.00000   31.79525   22.94193   30.56150
     208      444        1     0.00000    4.38505   13.23837    5.61880
     209      444        1     0.00000   23.70895    4.38505    4.85178
     210      444        1     0.00000   12.47135   31.79525   31.32852
     211      444        1     0.00000   12.47135   22.47520   13.23837
     212      444        1     0.00000   23.70895   13.70510   22.94193
     213      444        1     0.00000    5.61880   13.70510   31.32852
     214      444        1     0.00000   30.56150   22.47520    4.85178
     215      444        1     0.00000   30.56150   31.79525   22.94193
     216      444        1     0.00000    5.61880    4.38505   13.23837
     217      444        1     0.00000    5.22805   20.95925    4.66726
     218      444        1     0.00000   30.95225   15.22105   31.51304
     219      444        1     0.00000   12.86210   15.22105   22.75741
     220      444        1     0.00000   23.31820   20.95925   13.42289
     221      444        1     0.00000   30.95225    2.86910   13.42289
     222      444        1     0.00000    5.22805   33.31120   22.75741
     223      444        1     0.00000   23.31820   33.31120   31.51304
     224      444        1     0.00000   12.86210    2.86910    4.66726
     225      444        1     0.00000    4.66726    5.22805   20.95925
     226      444        1     0.00000   31.51304   30.95225   15.22105
     227      444        1     0.00000   22.75741   12.86210   15.22105
     228      444        1     0.00000   13.42289   23.31820   20.95925
     229      444        1     0.00000   13.42289   30.95225    2.86910
     230      444        1     0.00000   22.75741    5.22805   33.31120
     231      444        1     0.00000   31.51304   23.31820   33.31120
     232      444        1     0.00000    4.66726   12.86210    2.86910
     233      444        1     0.00000   20.95925    4.66726    5.22805
     234      444        1     0.00000   15.22105   31.51304   30.95225
     235      444        1     0.00000   15.22105   22.75741   12.86210
     236      444        1     0.00000   20.95925   13.42289   23.31820
     237      444        1     0.00000    2.86910   13.42289   30.95225
     238      444        1     0.00000   33.31120   22.75741    5.22805
     239      444        1     0.00000   33.31120   31.51304   23.31820
     240      444        1     0.00000    2.86910    4.66726   12.86210
     241      444        1     0.00000    5.99508   23.11921    3.85682
     242      444        1     0.00000   30.18523   13.06109   32.32348
     243      444        1     0.00000   12.09507   13.06109   21.94697
     244      444        1     0.00000   24.08523   23.11921   14.23333
     245      444        1     0.00000   30.18523    5.02906   14.23333
     246      444        1     0.00000    5.99508   31.15124   21.94697
     247      444        1     0.00000   24.08523   31.15124   32.32348
     248      444        1     0.00000   12.09507    5.02906    3.85682
     249      444        1     0.00000    3.85682    5.99508   23.11921
     250      444        1     0.00000   32.32348   30.18523   13.06109
     251      444        1     0.00000   21.94697   12.09507   13.06109
     252      444        1     0.00000   14.23333   24.08523   23.11921
     253      444        1     0.00000   14.23333   30.18523    5.02906
     254      444        1     0.00000   21.94697    5.99508   31.15124
     255      444        1     0.00000   32.32348   24.08523   31.15124
     256      444        1     0.00000    3.85682   12.09507    5.02906
     257      444        1     0.00000   23.11921    3.85682    5.99508
     258      444        1     0.00000   13.06109   32.32348   30.18523
     259      444        1     0.00000   13.06109   21.94697   12.09507
     260      444        1     0.00000   23.11921   14.23333   24.08523
     261      444        1     0.00000    5.02906   14.23333   30.18523
     262      444        1     0.00000   31.15124   21.94697    5.99508
     263      444        1     0.00000   31.15124   32.32348   24.08523
     264      444        1     0.00000    5.02906    3.85682   12.09507
     265      444        1     0.00000    6.17960   21.73351    3.97260
     266      444        1     0.00000   30.00071   14.44679   32.20770
     267      444        1     0.00000   11.91056   14.44679   22.06275
     268      444        1     0.00000   24.26975   21.73351   14.11755
     269      444        1     0.00000   30.00071    3.64336   14.11755
     270      444        1     0.00000    6.17960   32.53695   22.06275
     271      444        1     0.00000   24.26975   32.53695   32.20770
     272      444        1     0.00000   11.91056    3.64336    3.97260
     273      444        1     0.00000    3.97260    6.17960   21.73351
     274      444        1     0.00000   32.20770   30.00071   14.44679
     275      444        1     0.00000   22.06275   11.91056   14.44679
     276      444        1     0.00000   14.11755   24.26975   21.73351
     277      444        1     0.00000   14.11755   30.00071    3.64336
     278      444        1     0.00000   22.06275    6.17960   32.53695
     279      444        1     0.00000   32.20770   24.26975   32.53695
     280      444        1     0.00000    3.97260   11.91056    3.64336
     281      444        1     0.00000   21.73351    3.97260    6.17960
     282      444        1     0.00000   14.44679   32.20770   30.00071
     283      444        1     0.00000   14.44679   22.06275   11.91056
     284      444        1     0.00000   21.73351   14.11755   24.26975
     285      444        1     0.00000    3.64336   14.11755   30.00071
     286      444        1     0.00000   32.53695   22.06275    6.17960
     287      444        1     0.00000   32.53695   32.20770   24.26975
     288      444        1     0.00000    3.64336    3.97260   11.91056
     289      444        1     0.00000   13.65445   11.86352   32.46097
     290      444        1     0.00000   22.52586   24.31678    3.71934
     291      444        1     0.00000    4.43571   24.31678   14.37082
     292      444        1     0.00000   31.74460   11.86352   21.80949
     293      444        1     0.00000   22.52586   29.95367   21.80949
     294      444        1     0.00000   13.65445    6.22663   14.37082
     295      444        1     0.00000   31.74460    6.22663    3.71934
     296      444        1     0.00000    4.43571   29.95367   32.46097
     297      444        1     0.00000   32.46097   13.65445   11.86352
     298      444        1     0.00000    3.71934   22.52586   24.31678
     299      444        1     0.00000   14.37082    4.43571   24.31678
     300      444        1     0.00000   21.80949   31.74460   11.86352
     301      444        1     0.00000   21.80949   22.52586   29.95367
     302      444        1     0.00000   14.37082   13.65445    6.22663
     303      444        1     0.00000    3.71934   31.74460    6.22663
     304      444        1     0.00000   32.46097    4.43571   29.95367
     305      444        1     0.00000   11.86352   32.46097   13.65445
     306      444        1     0.00000   24.31678    3.71934   22.52586
     307      444        1     0.00000   24.31678   14.37082    4.43571
     308      444        1     0.00000   11.86352   21.80949   31.74460
     309      444        1     0.00000   29.95367   21.80949   22.52586
     310      444        1     0.00000    6.22663   14.37082   13.65445
     311      444        1     0.00000    6.22663    3.71934   31.74460
     312      444        1     0.00000   29.95367   32.46097    4.43571
     313      444        1     0.00000   14.17906   14.20439   29.74383
     314      444        1     0.00000   22.00124   21.97592    6.43648
     315      444        1     0.00000    3.91109   21.97592   11.65368
     316      444        1     0.00000   32.26921   14.20439   24.52663
     317      444        1     0.00000   22.00124   32.29454   24.52663
     318      444        1     0.00000   14.17906    3.88576   11.65368
     319      444        1     0.00000   32.26921    3.88576    6.43648
     320      444        1     0.00000    3.91109   32.29454   29.74383
     321      444        1     0.00000   29.74383   14.17906   14.20439
     322      444        1     0.00000    6.43648   22.00124   21.97592
     323      444        1     0.00000   11.65368    3.91109   21.97592
     324      444        1     0.00000   24.52663   32.26921   14.20439
     325      444        1     0.00000   24.52663   22.00124   32.29454
     326      444        1     0.00000   11.65368   14.17906    3.88576
     327      444        1     0.00000    6.43648   32.26921    3.88576
     328      444        1     0.00000   29.74383    3.91109   32.29454
     329      444        1     0.00000   14.20439   29.74383   14.17906
     330      444        1     0.00000   21.97592    6.43648   22.00124
     331      444        1     0.00000   21.97592   11.65368    3.91109
     332      444        1     0.00000   14.20439   24.52663   32.26921
     333      444        1     0.00000   32.29454   24.52663   22.00124
     334      444        1     0.00000    3.88576   11.65368   14.17906
     335      444        1     0.00000    3.88576    6.43648   32.26921
     336      444        1     0.00000   32.29454   29.74383    3.91109
     337      444        1     0.00000   17.08434   10.59359   31.78078
     338      444        1     0.00000   19.09596   25.58671    4.39952
     339      444        1     0.00000    1.00581   25.58671   13.69063
     340      444        1     0.00000   35.17449   10.59359   22.48968
     341      444        1     0.00000   19.09596   28.68374   22.48968
     342      444        1     0.00000   17.08434    7.49656   13.69063
     343      444        1     0.00000   35.17449    7.49656    4.39952
     344      444        1     0.00000    1.00581   28.68374   31.78078
     345      444        1     0.00000   31.78078   17.08434   10.59359
     346      444        1     0.00000    4.39952   19.09596   25.58671
     347      444        1     0.00000   13.69063    1.00581   25.58671
     348      444        1     0.00000   22.48968   35.17449   10.59359
     349      444        1     0.00000   22.48968   19.09596   28.68374
     350      444        1     0.00000   13.69063   17.08434    7.49656
     351      444        1     0.00000    4.39952   35.17449    7.49656
     352      444        1     0.00000   31.78078    1.00581   28.68374
     353      444        1     0.00000   10.59359   31.78078   17.08434
     354      444        1     0.00000   25.58671    4.39952   19.09596
     355      444        1     0.00000   25.58671   13.69063    1.00581
     356      444        1     0.00000   10.59359   22.48968   35.17449
     357      444        1     0.00000   28.68374   22.48968   19.09596
     358      444        1     0.00000    7.49656   13.69063   17.08434
     359      444        1     0.00000    7.49656    4.39952   35.17449
     360      444        1     0.00000   28.68374   31.78078    1.00581
     361      444        1     0.00000   17.33398   12.85848   29.14685
     362      444        1     0.00000   18.84632   23.32182    7.03345
     363      444        1     0.00000    0.75617   23.32182   11.05670
     364      444        1     0.00000   35.42413   12.85848   25.12360
     365      444        1     0.00000   18.84632   30.94863   25.12360
     366      444        1     0.00000   17.33398    5.23167   11.05670
     367      444        1     0.00000   35.42413    5.23167    7.03345
     368      444        1     0.00000    0.75617   30.94863   29.14685
     369      444        1     0.00000   29.14685   17.33398   12.85848
     370      444        1     0.00000    7.03345   18.84632   23.32182
     371      444        1     0.00000   11.05670    0.75617   23.32182
     372      444        1     0.00000   25.12360   35.42413   12.85848
     373      444        1     0.00000   25.12360   18.84632   30.94863
     374      444        1     0.00000   11.05670   17.33398    5.23167
     375      444        1     0.00000    7.03345   35.42413    5.23167
     376      444        1     0.00000   29.14685    0.75617   30.94863
     377      444        1     0.00000   12.85848   29.14685   17.33398
     378      444        1     0.00000   23.32182    7.03345   18.84632
     379      444        1     0.00000   23.32182   11.05670    0.75617
     380      444        1     0.00000   12.85848   25.12360   35.42413
     381      444        1     0.00000   30.94863   25.12360   18.84632
     382      444        1     0.00000    5.23167   11.05670   17.33398