Created on Thu Jan 23 12:27:11 2025 

        1728 atoms
        2184 bonds
        4704 angles
        7776 dihedrals
        2160 impropers

           6 atom types
          10 bond types
          14 angle types
           6 dihedral types
           1 improper types
           0.000000  40.490000 xlo xhi
           0.000000  40.490000 ylo yhi
           0.000000  40.490000 zlo zhi
           0.000000   0.000000   0.000000 xy xz yz

Masses

    1    63.546000000 # Cu3f2
    2    14.006700000 # N_R
    3    15.999400000 # O_2
    4    12.010700000 # C_R
    5     1.007940000 # H_
    6    12.010700000 # C_3

Bond Coeffs

    1       45.683534        2.819477  # Cu3f2 Cu3f2
    2      185.539128        1.933501  # Cu3f2 O_2
    3      663.718927        1.345073  # N_R C_R
    4      529.724731        1.450075  # N_R C_3
    5      714.557442        1.269010  # O_2 C_R
    6      391.669513        1.458000  # C_R C_R
    7      462.655054        1.379256  # C_R C_R
    8      357.440381        1.081418  # C_R H_
    9      349.795899        1.514000  # C_3 C_3
   10      331.069389        1.109401  # C_3 H_

Angle Coeffs

    1                      fourier       57.339338        0.343737        0.374972        0.281246 # Cu3f2 Cu3f2 O_2
    2                      fourier      148.822143        0.343737        0.374972        0.281246 # O_2 Cu3f2 O_2
    3              cosine/periodic      120.000516              -1               3 # C_R N_R C_R
    4              cosine/periodic      106.782348              -1               3 # C_R N_R C_3
    5              cosine/periodic       61.771810              -1               3 # Cu3f2 O_2 C_R
    6              cosine/periodic      206.778426              -1               3 # O_2 C_R O_2
    7              cosine/periodic      137.714246              -1               3 # O_2 C_R C_R
    8              cosine/periodic      102.183280              -1               3 # C_R C_R C_R
    9              cosine/periodic      111.297508              -1               3 # C_R C_R C_R
   10              cosine/periodic       57.289016              -1               3 # C_R C_R H_
   11              cosine/periodic      153.699352              -1               3 # N_R C_R C_R
   12                      fourier      303.594562        0.343737        0.374972        0.281246 # N_R C_3 C_3
   13                      fourier      214.211821        0.343737        0.374972        0.281246 # C_3 C_3 C_3
   14                      fourier      117.318683        0.343737        0.374972        0.281246 # C_3 C_3 H_

Dihedral Coeffs

    1        3.368555              -1               2 # C_R N_R C_R C_R
    2        0.125000               1               3 # C_R N_R C_3 C_3
    3        6.737110              -1               2 # Cu3f2 O_2 C_R O_2
    4        1.250000              -1               2 # O_2 C_R C_R C_R
    5        0.088292               1               3 # N_R C_3 C_3 C_3
    6        0.117722               1               3 # C_3 C_3 C_3 C_3

Improper Coeffs

    1        2.000000        1.000000       -1.000000        0.000000               0 # C_R N_R C_R C_3

Pair Coeffs

    1        0.005000        3.113691 # Cu3f2 Cu3f2
    2        0.069000        3.260689 # N_R N_R
    3        0.060000        3.118146 # O_2 O_2
    4        0.105000        3.430851 # C_R C_R
    5        0.044000        2.571134 # H_ H_
    6        0.105000        3.430851 # C_3 C_3

Atoms

       1      444        1     0.00000   20.24500   20.24500   33.53179
       2      444        1     0.00000   20.24500   20.24500    6.95821
       3      444        1     0.00000   33.53179   20.24500   20.24500
       4      444        1     0.00000    6.95821   20.24500   20.24500
       5      444        1     0.00000   20.24500   33.53179   20.24500
       6      444        1     0.00000   20.24500    6.95821   20.24500
       7      444        1     0.00000   20.24500    0.00000   13.28679
       8      444        1     0.00000   20.24500    0.00000   27.20321
       9      444        1     0.00000   33.53179    0.00000    0.00000
      10      444        1     0.00000    6.95821    0.00000    0.00000
      11      444        1     0.00000   20.24500   13.28679    0.00000
      12      444        1     0.00000   20.24500   27.20321    0.00000
      13      444        1     0.00000    0.00000   20.24500   13.28679
      14      444        1     0.00000    0.00000   20.24500   27.20321
      15      444        1     0.00000   13.28679   20.24500    0.00000
      16      444        1     0.00000   27.20321   20.24500    0.00000
      17      444        1     0.00000    0.00000   33.53179    0.00000
      18      444        1     0.00000    0.00000    6.95821    0.00000
      19      444        1     0.00000    0.00000    0.00000   33.53179
      20      444        1     0.00000    0.00000    0.00000    6.95821
      21      444        1     0.00000   13.28679    0.00000   20.24500
      22      444        1     0.00000   27.20321    0.00000   20.24500
      23      444        1     0.00000    0.00000   13.28679   20.24500
      24      444        1     0.00000    0.00000   27.20321   20.24500
      25      444        1     0.00000   20.24500   20.24500   30.90075
      26      444        1     0.00000   20.24500   20.24500    9.58925
      27      444        1     0.00000   30.90075   20.24500   20.24500
      28      444        1     0.00000    9.58925   20.24500   20.24500
      29      444        1     0.00000   20.24500   30.90075   20.24500
      30      444        1     0.00000   20.24500    9.58925   20.24500
      31      444        1     0.00000   20.24500    0.00000   10.65575
      32      444        1     0.00000   20.24500    0.00000   29.83425
      33      444        1     0.00000   30.90075    0.00000    0.00000
      34      444        1     0.00000    9.58925    0.00000    0.00000
      35      444        1     0.00000   20.24500   10.65575    0.00000
      36      444        1     0.00000   20.24500   29.83425    0.00000
      37      444        1     0.00000    0.00000   20.24500   10.65575
      38      444        1     0.00000    0.00000   20.24500   29.83425
      39      444        1     0.00000   10.65575   20.24500    0.00000
      40      444        1     0.00000   29.83425   20.24500    0.00000
      41      444        1     0.00000    0.00000   30.90075    0.00000
      42      444        1     0.00000    0.00000    9.58925    0.00000
      43      444        1     0.00000    0.00000    0.00000   30.90075
      44      444        1     0.00000    0.00000    0.00000    9.58925
      45      444        1     0.00000   10.65575    0.00000   20.24500
      46      444        1     0.00000   29.83425    0.00000   20.24500
      47      444        1     0.00000    0.00000   10.65575   20.24500
      48      444        1     0.00000    0.00000   29.83425   20.24500
      49      444        2     0.00000   20.24500   12.11137   32.35637
      50      444        2     0.00000   20.24500   28.37863    8.13363
      51      444        2     0.00000   20.24500   28.37863   32.35637
      52      444        2     0.00000   20.24500   12.11137    8.13363
      53      444        2     0.00000   32.35637   20.24500   12.11137
      54      444        2     0.00000    8.13363   20.24500   28.37863
      55      444        2     0.00000   32.35637   20.24500   28.37863
      56      444        2     0.00000    8.13363   20.24500   12.11137
      57      444        2     0.00000   12.11137   32.35637   20.24500
      58      444        2     0.00000   28.37863    8.13363   20.24500
      59      444        2     0.00000   28.37863   32.35637   20.24500
      60      444        2     0.00000   12.11137    8.13363   20.24500
      61      444        2     0.00000   12.11137   20.24500    8.13363
      62      444        2     0.00000   28.37863   20.24500   32.35637
      63      444        2     0.00000   28.37863   20.24500    8.13363
      64      444        2     0.00000   12.11137   20.24500   32.35637
      65      444        2     0.00000   20.24500   32.35637   28.37863
      66      444        2     0.00000   20.24500    8.13363   12.11137
      67      444        2     0.00000   20.24500   32.35637   12.11137
      68      444        2     0.00000   20.24500    8.13363   28.37863
      69      444        2     0.00000   32.35637   12.11137   20.24500
      70      444        2     0.00000    8.13363   28.37863   20.24500
      71      444        2     0.00000   32.35637   28.37863   20.24500
      72      444        2     0.00000    8.13363   12.11137   20.24500
      73      444        2     0.00000   32.35637    0.00000   32.35637
      74      444        2     0.00000    8.13363    0.00000    8.13363
      75      444        2     0.00000   32.35637    0.00000    8.13363
      76      444        2     0.00000    8.13363    0.00000   32.35637
      77      444        2     0.00000   12.11137   12.11137    0.00000
      78      444        2     0.00000   28.37863   28.37863    0.00000
      79      444        2     0.00000   28.37863   12.11137    0.00000
      80      444        2     0.00000   12.11137   28.37863    0.00000
      81      444        2     0.00000   12.11137    0.00000   28.37863
      82      444        2     0.00000   28.37863    0.00000   12.11137
      83      444        2     0.00000   28.37863    0.00000   28.37863
      84      444        2     0.00000   12.11137    0.00000   12.11137
      85      444        2     0.00000   32.35637   32.35637    0.00000
      86      444        2     0.00000    8.13363    8.13363    0.00000
      87      444        2     0.00000   32.35637    8.13363    0.00000
      88      444        2     0.00000    8.13363   32.35637    0.00000
      89      444        2     0.00000    0.00000   12.11137   12.11137
      90      444        2     0.00000    0.00000   28.37863   28.37863
      91      444        2     0.00000    0.00000   28.37863   12.11137
      92      444        2     0.00000    0.00000   12.11137   28.37863
      93      444        2     0.00000    0.00000   32.35637    8.13363
      94      444        2     0.00000    0.00000    8.13363   32.35637
      95      444        2     0.00000    0.00000   32.35637   32.35637
      96      444        2     0.00000    0.00000    8.13363    8.13363
      97      444        3     0.00000   20.24500   18.28245   33.33461
      98      444        3     0.00000   20.24500   22.20755    7.15539
      99      444        3     0.00000   20.24500   22.20755   33.33461
     100      444        3     0.00000   20.24500   18.28245    7.15539
     101      444        3     0.00000   33.33461   20.24500   18.28245
     102      444        3     0.00000    7.15539   20.24500   22.20755
     103      444        3     0.00000   33.33461   20.24500   22.20755
     104      444        3     0.00000    7.15539   20.24500   18.28245
     105      444        3     0.00000   18.28245   33.33461   20.24500
     106      444        3     0.00000   22.20755    7.15539   20.24500
     107      444        3     0.00000   22.20755   33.33461   20.24500
     108      444        3     0.00000   18.28245    7.15539   20.24500
     109      444        3     0.00000   18.28245   20.24500    7.15539
     110      444        3     0.00000   22.20755   20.24500   33.33461
     111      444        3     0.00000   22.20755   20.24500    7.15539
     112      444        3     0.00000   18.28245   20.24500   33.33461
     113      444        3     0.00000   20.24500   33.33461   22.20755
     114      444        3     0.00000   20.24500    7.15539   18.28245
     115      444        3     0.00000   20.24500   33.33461   18.28245
     116      444        3     0.00000   20.24500    7.15539   22.20755
     117      444        3     0.00000   33.33461   18.28245   20.24500
     118      444        3     0.00000    7.15539   22.20755   20.24500
     119      444        3     0.00000   33.33461   22.20755   20.24500
     120      444        3     0.00000    7.15539   18.28245   20.24500
     121      444        3     0.00000   20.24500   38.52745   13.08961
     122      444        3     0.00000   20.24500    1.96255   27.40039
     123      444        3     0.00000   20.24500    1.96255   13.08961
     124      444        3     0.00000   20.24500   38.52745   27.40039
     125      444        3     0.00000   33.33461    0.00000   38.52745
     126      444        3     0.00000    7.15539    0.00000    1.96255
     127      444        3     0.00000   33.33461    0.00000    1.96255
     128      444        3     0.00000    7.15539    0.00000   38.52745
     129      444        3     0.00000   18.28245   13.08961    0.00000
     130      444        3     0.00000   22.20755   27.40039    0.00000
     131      444        3     0.00000   22.20755   13.08961    0.00000
     132      444        3     0.00000   18.28245   27.40039    0.00000
     133      444        3     0.00000   18.28245    0.00000   27.40039
     134      444        3     0.00000   22.20755    0.00000   13.08961
     135      444        3     0.00000   22.20755    0.00000   27.40039
     136      444        3     0.00000   18.28245    0.00000   13.08961
     137      444        3     0.00000   20.24500   13.08961    1.96255
     138      444        3     0.00000   20.24500   27.40039   38.52745
     139      444        3     0.00000   20.24500   13.08961   38.52745
     140      444        3     0.00000   20.24500   27.40039    1.96255
     141      444        3     0.00000   33.33461   38.52745    0.00000
     142      444        3     0.00000    7.15539    1.96255    0.00000
     143      444        3     0.00000   33.33461    1.96255    0.00000
     144      444        3     0.00000    7.15539   38.52745    0.00000
     145      444        3     0.00000    0.00000   18.28245   13.08961
     146      444        3     0.00000    0.00000   22.20755   27.40039
     147      444        3     0.00000    0.00000   22.20755   13.08961
     148      444        3     0.00000    0.00000   18.28245   27.40039
     149      444        3     0.00000   13.08961   20.24500   38.52745
     150      444        3     0.00000   27.40039   20.24500    1.96255
     151      444        3     0.00000   13.08961   20.24500    1.96255
     152      444        3     0.00000   27.40039   20.24500   38.52745
     153      444        3     0.00000   38.52745   33.33461    0.00000
     154      444        3     0.00000    1.96255    7.15539    0.00000
     155      444        3     0.00000    1.96255   33.33461    0.00000
     156      444        3     0.00000   38.52745    7.15539    0.00000
     157      444        3     0.00000   38.52745   20.24500   27.40039
     158      444        3     0.00000    1.96255   20.24500   13.08961
     159      444        3     0.00000    1.96255   20.24500   27.40039
     160      444        3     0.00000   38.52745   20.24500   13.08961
     161      444        3     0.00000    0.00000   33.33461    1.96255
     162      444        3     0.00000    0.00000    7.15539   38.52745
     163      444        3     0.00000    0.00000   33.33461   38.52745
     164      444        3     0.00000    0.00000    7.15539    1.96255
     165      444        3     0.00000   13.08961   18.28245    0.00000
     166      444        3     0.00000   27.40039   22.20755    0.00000
     167      444        3     0.00000   13.08961   22.20755    0.00000
     168      444        3     0.00000   27.40039   18.28245    0.00000
     169      444        3     0.00000    0.00000   38.52745   33.33461
     170      444        3     0.00000    0.00000    1.96255    7.15539
     171      444        3     0.00000    0.00000    1.96255   33.33461
     172      444        3     0.00000    0.00000   38.52745    7.15539
     173      444        3     0.00000   13.08961    0.00000   18.28245
     174      444        3     0.00000   27.40039    0.00000   22.20755
     175      444        3     0.00000   13.08961    0.00000   22.20755
     176      444        3     0.00000   27.40039    0.00000   18.28245
     177      444        3     0.00000   38.52745   13.08961   20.24500
     178      444        3     0.00000    1.96255   27.40039   20.24500
     179      444        3     0.00000    1.96255   13.08961   20.24500
     180      444        3     0.00000   38.52745   27.40039   20.24500
     181      444        3     0.00000   38.52745    0.00000    7.15539
     182      444        3     0.00000    1.96255    0.00000   33.33461
     183      444        3     0.00000    1.96255    0.00000    7.15539
     184      444        3     0.00000   38.52745    0.00000   33.33461
     185      444        3     0.00000    0.00000   13.08961   22.20755
     186      444        3     0.00000    0.00000   27.40039   18.28245
     187      444        3     0.00000    0.00000   13.08961   18.28245
     188      444        3     0.00000    0.00000   27.40039   22.20755
     189      444        3     0.00000   13.08961   38.52745   20.24500
     190      444        3     0.00000   27.40039    1.96255   20.24500
     191      444        3     0.00000   13.08961    1.96255   20.24500
     192      444        3     0.00000   27.40039   38.52745   20.24500
     193      444        3     0.00000   20.24500   18.29298   31.09146
     194      444        3     0.00000   20.24500   22.19702    9.39854
     195      444        3     0.00000   20.24500   22.19702   31.09146
     196      444        3     0.00000   20.24500   18.29298    9.39854
     197      444        3     0.00000   31.09146   20.24500   18.29298
     198      444        3     0.00000    9.39854   20.24500   22.19702
     199      444        3     0.00000   31.09146   20.24500   22.19702
     200      444        3     0.00000    9.39854   20.24500   18.29298
     201      444        3     0.00000   18.29298   31.09146   20.24500
     202      444        3     0.00000   22.19702    9.39854   20.24500
     203      444        3     0.00000   22.19702   31.09146   20.24500
     204      444        3     0.00000   18.29298    9.39854   20.24500
     205      444        3     0.00000   18.29298   20.24500    9.39854
     206      444        3     0.00000   22.19702   20.24500   31.09146
     207      444        3     0.00000   22.19702   20.24500    9.39854
     208      444        3     0.00000   18.29298   20.24500   31.09146
     209      444        3     0.00000   20.24500   31.09146   22.19702
     210      444        3     0.00000   20.24500    9.39854   18.29298
     211      444        3     0.00000   20.24500   31.09146   18.29298
     212      444        3     0.00000   20.24500    9.39854   22.19702
     213      444        3     0.00000   31.09146   18.29298   20.24500
     214      444        3     0.00000    9.39854   22.19702   20.24500
     215      444        3     0.00000   31.09146   22.19702   20.24500
     216      444        3     0.00000    9.39854   18.29298   20.24500
     217      444        3     0.00000   20.24500   38.53798   10.84646
     218      444        3     0.00000   20.24500    1.95202   29.64354
     219      444        3     0.00000   20.24500    1.95202   10.84646
     220      444        3     0.00000   20.24500   38.53798   29.64354
     221      444        3     0.00000   31.09146    0.00000   38.53798
     222      444        3     0.00000    9.39854    0.00000    1.95202
     223      444        3     0.00000   31.09146    0.00000    1.95202
     224      444        3     0.00000    9.39854    0.00000   38.53798
     225      444        3     0.00000   18.29298   10.84646    0.00000
     226      444        3     0.00000   22.19702   29.64354    0.00000
     227      444        3     0.00000   22.19702   10.84646    0.00000
     228      444        3     0.00000   18.29298   29.64354    0.00000
     229      444        3     0.00000   18.29298    0.00000   29.64354
     230      444        3     0.00000   22.19702    0.00000   10.84646
     231      444        3     0.00000   22.19702    0.00000   29.64354
     232      444        3     0.00000   18.29298    0.00000   10.84646
     233      444        3     0.00000   20.24500   10.84646    1.95202
     234      444        3     0.00000   20.24500   29.64354   38.53798
     235      444        3     0.00000   20.24500   10.84646   38.53798
     236      444        3     0.00000   20.24500   29.64354    1.95202
     237      444        3     0.00000   31.09146   38.53798    0.00000
     238      444        3     0.00000    9.39854    1.95202    0.00000
     239      444        3     0.00000   31.09146    1.95202    0.00000
     240      444        3     0.00000    9.39854   38.53798    0.00000
     241      444        3     0.00000    0.00000   18.29298   10.84646
     242      444        3     0.00000    0.00000   22.19702   29.64354
     243      444        3     0.00000    0.00000   22.19702   10.84646
     244      444        3     0.00000    0.00000   18.29298   29.64354
     245      444        3     0.00000   10.84646   20.24500   38.53798
     246      444        3     0.00000   29.64354   20.24500    1.95202
     247      444        3     0.00000   10.84646   20.24500    1.95202
     248      444        3     0.00000   29.64354   20.24500   38.53798
     249      444        3     0.00000   38.53798   31.09146    0.00000
     250      444        3     0.00000    1.95202    9.39854    0.00000
     251      444        3     0.00000    1.95202   31.09146    0.00000
     252      444        3     0.00000   38.53798    9.39854    0.00000
     253      444        3     0.00000   38.53798   20.24500   29.64354
     254      444        3     0.00000    1.95202   20.24500   10.84646
     255      444        3     0.00000    1.95202   20.24500   29.64354
     256      444        3     0.00000   38.53798   20.24500   10.84646
     257      444        3     0.00000    0.00000   31.09146    1.95202
     258      444        3     0.00000    0.00000    9.39854   38.53798
     259      444        3     0.00000    0.00000   31.09146   38.53798
     260      444        3     0.00000    0.00000    9.39854    1.95202
     261      444        3     0.00000   10.84646   18.29298    0.00000
     262      444        3     0.00000   29.64354   22.19702    0.00000
     263      444        3     0.00000   10.84646   22.19702    0.00000
     264      444        3     0.00000   29.64354   18.29298    0.00000
     265      444        3     0.00000    0.00000   38.53798   31.09146
     266      444        3     0.00000    0.00000    1.95202    9.39854
     267      444        3     0.00000    0.00000    1.95202   31.09146
     268      444        3     0.00000    0.00000   38.53798    9.39854
     269      444        3     0.00000   10.84646    0.00000   18.29298
     270      444        3     0.00000   29.64354    0.00000   22.19702
     271      444        3     0.00000   10.84646    0.00000   22.19702
     272      444        3     0.00000   29.64354    0.00000   18.29298
     273      444        3     0.00000   38.53798   10.84646   20.24500
     274      444        3     0.00000    1.95202   29.64354   20.24500
     275      444        3     0.00000    1.95202   10.84646   20.24500
     276      444        3     0.00000   38.53798   29.64354   20.24500
     277      444        3     0.00000   38.53798    0.00000    9.39854
     278      444        3     0.00000    1.95202    0.00000   31.09146
     279      444        3     0.00000    1.95202    0.00000    9.39854
     280      444        3     0.00000   38.53798    0.00000   31.09146
     281      444        3     0.00000    0.00000   10.84646   22.19702
     282      444        3     0.00000    0.00000   29.64354   18.29298
     283      444        3     0.00000    0.00000   10.84646   18.29298
     284      444        3     0.00000    0.00000   29.64354   22.19702
     285      444        3     0.00000   10.84646   38.53798   20.24500
     286      444        3     0.00000   29.64354    1.95202   20.24500
     287      444        3     0.00000   10.84646    1.95202   20.24500
     288      444        3     0.00000   29.64354   38.53798   20.24500
     289      444        3     0.00000   20.24500   20.24500   35.68991
     290      444        3     0.00000   20.24500   20.24500    4.80009
     291      444        3     0.00000   35.68991   20.24500   20.24500
     292      444        3     0.00000    4.80009   20.24500   20.24500
     293      444        3     0.00000   20.24500   35.68991   20.24500
     294      444        3     0.00000   20.24500    4.80009   20.24500
     295      444        3     0.00000   20.24500    0.00000   15.44491
     296      444        3     0.00000   20.24500    0.00000   25.04509
     297      444        3     0.00000   35.68991    0.00000    0.00000
     298      444        3     0.00000    4.80009    0.00000    0.00000
     299      444        3     0.00000   20.24500   15.44491    0.00000
     300      444        3     0.00000   20.24500   25.04509    0.00000
     301      444        3     0.00000    0.00000   20.24500   15.44491
     302      444        3     0.00000    0.00000   20.24500   25.04509
     303      444        3     0.00000   15.44491   20.24500    0.00000
     304      444        3     0.00000   25.04509   20.24500    0.00000
     305      444        3     0.00000    0.00000   35.68991    0.00000
     306      444        3     0.00000    0.00000    4.80009    0.00000
     307      444        3     0.00000    0.00000    0.00000   35.68991
     308      444        3     0.00000    0.00000    0.00000    4.80009
     309      444        3     0.00000   15.44491    0.00000   20.24500
     310      444        3     0.00000   25.04509    0.00000   20.24500
     311      444        3     0.00000    0.00000   15.44491   20.24500
     312      444        3     0.00000    0.00000   25.04509   20.24500
     313      444        3     0.00000   20.24500   20.24500   28.73413
     314      444        3     0.00000   20.24500   20.24500   11.75587
     315      444        3     0.00000   28.73413   20.24500   20.24500
     316      444        3     0.00000   11.75587   20.24500   20.24500
     317      444        3     0.00000   20.24500   28.73413   20.24500
     318      444        3     0.00000   20.24500   11.75587   20.24500
     319      444        3     0.00000   20.24500    0.00000    8.48913
     320      444        3     0.00000   20.24500    0.00000   32.00087
     321      444        3     0.00000   28.73413    0.00000    0.00000
     322      444        3     0.00000   11.75587    0.00000    0.00000
     323      444        3     0.00000   20.24500    8.48913    0.00000
     324      444        3     0.00000   20.24500   32.00087    0.00000
     325      444        3     0.00000    0.00000   20.24500    8.48913
     326      444        3     0.00000    0.00000   20.24500   32.00087
     327      444        3     0.00000    8.48913   20.24500    0.00000
     328      444        3     0.00000   32.00087   20.24500    0.00000
     329      444        3     0.00000    0.00000   28.73413    0.00000
     330      444        3     0.00000    0.00000   11.75587    0.00000
     331      444        3     0.00000    0.00000    0.00000   28.73413
     332      444        3     0.00000    0.00000    0.00000   11.75587
     333      444        3     0.00000    8.48913    0.00000   20.24500
     334      444        3     0.00000   32.00087    0.00000   20.24500
     335      444        3     0.00000    0.00000    8.48913   20.24500
     336      444        3     0.00000    0.00000   32.00087   20.24500
     337      444        4     0.00000   20.24500   17.71316   32.21465
     338      444        4     0.00000   20.24500   22.77684    8.27535
     339      444        4     0.00000   20.24500   22.77684   32.21465
     340      444        4     0.00000   20.24500   17.71316    8.27535
     341      444        4     0.00000   32.21465   20.24500   17.71316
     342      444        4     0.00000    8.27535   20.24500   22.77684
     343      444        4     0.00000   32.21465   20.24500   22.77684
     344      444        4     0.00000    8.27535   20.24500   17.71316
     345      444        4     0.00000   17.71316   32.21465   20.24500
     346      444        4     0.00000   22.77684    8.27535   20.24500
     347      444        4     0.00000   22.77684   32.21465   20.24500
     348      444        4     0.00000   17.71316    8.27535   20.24500
     349      444        4     0.00000   17.71316   20.24500    8.27535
     350      444        4     0.00000   22.77684   20.24500   32.21465
     351      444        4     0.00000   22.77684   20.24500    8.27535
     352      444        4     0.00000   17.71316   20.24500   32.21465
     353      444        4     0.00000   20.24500   32.21465   22.77684
     354      444        4     0.00000   20.24500    8.27535   17.71316
     355      444        4     0.00000   20.24500   32.21465   17.71316
     356      444        4     0.00000   20.24500    8.27535   22.77684
     357      444        4     0.00000   32.21465   17.71316   20.24500
     358      444        4     0.00000    8.27535   22.77684   20.24500
     359      444        4     0.00000   32.21465   22.77684   20.24500
     360      444        4     0.00000    8.27535   17.71316   20.24500
     361      444        4     0.00000   20.24500   37.95816   11.96965
     362      444        4     0.00000   20.24500    2.53184   28.52035
     363      444        4     0.00000   20.24500    2.53184   11.96965
     364      444        4     0.00000   20.24500   37.95816   28.52035
     365      444        4     0.00000   32.21465    0.00000   37.95816
     366      444        4     0.00000    8.27535    0.00000    2.53184
     367      444        4     0.00000   32.21465    0.00000    2.53184
     368      444        4     0.00000    8.27535    0.00000   37.95816