LAMMPS data file via write_data, version 7 Feb 2024, timestep = 3263786, units = real

2784 atoms
6 atom types
3240 bonds
12 bond types
6144 angles
23 angle types
6624 dihedrals
5 dihedral types
4032 impropers
1 improper types

-1.3 57.39448700000002 xlo xhi
-1.3 57.37088300000002 ylo yhi
-1.3 57.669150000000016 zlo zhi
-0.057189 0.004121 -0.061161 xy xz yz

Masses

1 12.0107
2 1.00794
3 15.9994
4 65.38
5 14.0067
6 12.0107

Pair Coeffs # lj/cut

1 0.105 3.43085
2 0.044 2.57113
3 0.06 3.11815
4 0.124 2.46155
5 0.069 3.26069
6 0.105 3.43085

Bond Coeffs # harmonic

1 391.67 1.458
2 714.557 1.26901
3 462.655 1.37926
4 357.44 1.08142
5 111.058 2.0797
6 602.435 0.966432
7 19.4418 3.0801
8 140.566 1.98832
9 663.719 1.34507
10 529.725 1.45008
11 331.069 1.1094
12 369.944 1.486

Dihedral Coeffs # harmonic

1 1.25 -1 2
2 6.73711 -1 2
3 3.36856 -1 2
4 0.166667 1 3
5 0.833333 -1 2

Atoms # full

151 444 3 0 0.18375526836403933 5.361638959368239 3.897142245773331 0 0 0
149 444 3 0 0.05138399676663652 4.23978191320655 4.992631457815898 0 0 0
179 444 3 0 3.390223953376146 5.607908691257376 -0.28903367275541103 0 0 0
35 444 2 0 1.3531052242648631 1.8409563416560253 5.461667088895407 0 0 0
47 444 2 0 2.153215918192952 5.39444647177087 2.340561135815488 0 0 0
2417 444 2 0 8.391721096601422 11.543159177799204 -1.265562439728802 0 0 0
208 444 4 0 6.278334463595867 6.262558241516789 -1.1414004145482 0 0 0
1488 444 3 0 27.65968840088935 22.726770687165892 7.8196314083440255 0 0 0
2766 444 1 0 0.7548326856070238 12.230754179011583 12.559965511452502 0 0 0
1393 444 1 0 26.958748286162894 23.515683183841055 7.059710280923189 0 0 0
395 444 3 0 2.9878585826550905 -0.25558922471995804 5.443398844229194 0 0 0
397 444 3 0 5.678873483318083 -0.4019421627674732 3.8141830437873736 0 0 0
181 444 3 0 5.807744294788241 3.196893988207896 -0.2295880793340217 0 0 0
143 444 2 0 5.613348674257369 1.5893544874442955 2.1066497901350374 0 0 0
144 444 1 0 6.263841870942584 0.49063093892049503 4.456378726850462 0 0 0
133 444 1 0 6.422983885976802 3.882170869285054 0.661291906177474 0 0 0
142 444 1 0 6.467053660803046 2.110683376896806 2.4741776263967514 0 0 0
134 444 1 0 7.044093170346916 3.265975515369611 1.8792428831535177 0 0 0
141 444 1 0 6.8578328874586925 1.6577384019131387 3.7255338219602185 0 0 0
135 444 1 0 8.095815866654105 3.9570954016378703 2.54939477878298 0 0 0
139 444 1 0 7.818219863558649 2.467292350571558 4.440128179047129 0 0 0
137 444 1 0 8.4256996152199 3.5782298143875364 3.832139840072636 0 0 0
138 444 2 0 9.183178893337455 4.105254112200786 4.363566526708794 0 0 0
182 444 3 0 6.423935455550594 5.131868467575493 0.5851192903794262 0 0 0
136 444 2 0 8.697443122822916 4.735736599168188 2.0076621044567133 0 0 0
398 444 3 0 6.19774380947308 0.47070060145514336 5.721252959438879 0 0 0
140 444 2 0 8.21439924843689 2.2746947193887683 5.495480769224302 0 0 0
48 444 1 0 4.0038093242671176 6.325811951007892 0.5967932780502705 0 0 0
37 444 1 0 0.2827991491635349 6.636253904632009 3.9822719158692763 0 0 0
46 444 1 0 2.2417949893356726 6.48300325626067 2.414710788331928 0 0 0
180 444 3 0 5.245237704394293 6.278978698987655 0.7026141503179104 0 0 0
38 444 1 0 1.392837983129877 7.243095942969359 3.228099252186266 0 0 0
45 444 1 0 3.196466047425478 7.103653877020588 1.6196463938345824 0 0 0
39 444 1 0 1.6667248086865987 8.641718512079 3.4163714442078215 0 0 0
43 444 1 0 3.482615503984004 8.463787975114052 1.7739224793444854 0 0 0
41 444 1 0 2.676680020079739 9.224256469894623 2.6215203093098074 0 0 0
42 444 2 0 2.9522474663491396 10.213150073784956 2.76714594903423 0 0 0
40 444 2 0 1.237944983526383 9.21444156854131 4.169119701927976 0 0 0
44 444 2 0 4.282800500465722 8.951121595435229 1.1641965329004698 0 0 0
152 444 3 0 -0.6060349527263649 7.296017510497864 4.6223391627342 0 0 0
1769 444 2 0 24.831317342828626 27.68563461547515 2.828110117035836 0 0 0
2407 444 1 0 8.573816473263587 7.585801450595679 -0.06926517246686381 0 0 1
2411 444 2 0 8.527935920831244 6.793290005458071 0.6925405513740979 0 0 1
2412 444 2 0 10.140130221710768 8.997842115472702 0.551658030338873 0 0 1
2434 444 2 0 13.957126886513173 13.48009593452226 1.7985634900056324 0 0 1
2442 444 1 0 17.210010212480245 17.480099828233342 -0.27935906988594206 0 0 0
2439 444 2 0 18.41617187575478 15.088517061554477 1.4390633651521354 0 0 1
1532 444 4 0 20.468120899390353 20.088612151918007 -0.3549856444178373 0 0 1
2440 444 2 0 18.869976014453023 14.634100886519567 -0.17501342145040844 0 0 1
2438 444 6 0 18.103782827683172 15.18432318796949 0.40073667288329284 0 0 1
2446 444 2 0 20.348319288543387 17.1257832739334 0.1889872929796217 0 0 1
2443 444 1 0 19.380374519746443 17.469639218018706 -0.031188626677246756 0 0 1
2435 444 1 0 16.717070214037545 14.65971629059969 0.1459273049669476 0 0 1
2430 444 1 0 14.632543400742719 13.595805656331766 0.9635277556836523 0 0 1
2441 444 5 0 18.25542552292977 16.62572320477091 -0.006603082560237894 0 0 1
2433 444 1 0 15.78145702492991 14.362764516683908 1.1578511444834854 0 0 1
2437 444 2 0 15.999658399773768 14.620907937674836 2.198395502179255 0 0 1
2448 444 5 0 19.114823049263762 18.7732861749646 -0.3106065306420047 0 0 1
1336 444 2 0 22.306187899595944 18.106929089561813 3.2409234885900835 0 0 0
1338 444 2 0 23.083168209205695 17.575886445615332 5.483037136505249 0 0 0
1337 444 1 0 23.664146619497338 18.342583464513524 4.94489813320236 0 0 0
1335 444 1 0 23.099777415716172 18.69416981229698 3.660136655688782 0 0 0
1339 444 1 0 24.74276110285174 19.07343369076787 5.526296516468351 0 0 0
1334 444 1 0 23.655371266356653 19.78182109250371 3.038260768408694 0 0 0
1341 444 1 0 25.36012980175621 20.15163164426351 4.791628569649471 0 0 0
1333 444 1 0 23.020275361622172 20.3381722616257 1.8102010531889128 0 0 0
1342 444 1 0 24.854280264038742 20.45095854543951 3.490125394911562 0 0 0
1478 444 3 0 21.923924176660634 19.839103284543572 1.3624150677693125 0 0 0
1490 444 3 0 27.356836439310854 20.295123756567186 6.08972850048233 0 0 0
1344 444 1 0 26.58060574189005 20.894680767314007 5.317377837573809 0 0 0
1481 444 3 0 21.071934001368046 23.45265787106653 -0.9579320081906114 0 0 1
1480 444 3 0 20.346580552745817 20.95503041161161 1.6051015009052783 0 0 0
1348 444 2 0 19.073938796268383 21.200504395221458 3.8347624661532596 0 0 0
1349 444 1 0 19.010694321652743 22.815616801713194 5.248669588044216 0 0 0
1347 444 1 0 19.40652225706534 22.208857641235678 4.006008619921645 0 0 0
1351 444 1 0 19.37380815923463 24.11316530710423 5.495268425324928 0 0 0
1350 444 2 0 18.407212186930757 22.265552011347832 5.930724760853611 0 0 0
1353 444 1 0 20.133874242888112 24.85614808792098 4.540781538803463 0 0 0
1346 444 1 0 20.09941762574181 22.908790546460626 3.003484981260626 0 0 0
1498 444 3 0 20.16558727084421 26.93641309140482 5.822882492231055 0 0 0
1354 444 1 0 20.403657146024813 24.233008277286633 3.269883138358926 0 0 0
1345 444 1 0 20.519725581081598 22.230239235902665 1.788107779425751 0 0 0
1352 444 2 0 19.116491024190115 24.55098724808232 6.408011423981264 0 0 0
1356 444 1 0 20.721830301318448 26.15153468507828 4.9214359715453515 0 0 0
2418 444 1 0 10.541201212390742 11.266488936951838 -1.1713263547423807 0 0 0
1500 444 3 0 22.56239591187797 27.73436608023482 7.597861610348786 0 0 0
1479 444 3 0 21.286964536279427 22.834192867054856 0.9942241013749091 0 0 0
1343 444 2 0 25.227091837706293 21.214717704429837 2.8294315825275147 0 0 0
1477 444 3 0 23.478297419117478 21.379680748513127 1.2492533976878233 0 0 0
1489 444 3 0 26.909671990761183 22.06781973032279 4.887575677937432 0 0 0
1355 444 2 0 21.009376859729027 24.817230180370778 2.5308211002017096 0 0 0
1497 444 3 0 21.936312171880154 26.471218488767676 4.470052813927804 0 0 0
1487 444 3 0 27.19314944826323 23.62931322645107 5.806804850772229 0 0 0
1499 444 3 0 23.087024201222548 26.764951505905618 5.657332785894008 0 0 0
1403 444 2 0 25.314223304066715 25.36150251476511 5.93257932707954 0 0 0
1525 444 3 0 24.275172490307042 23.710456855585306 -0.9954532829893831 0 0 0
1531 444 4 0 22.750264958006078 22.284161843245457 -0.5846676814802327 0 0 1
1404 444 1 0 23.16821163833502 26.791691009084694 6.954024062691047 0 0 0
36 444 1 0 3.5638051593237217 0.4447522144177296 6.36312909832285 0 0 0
34 444 1 0 1.783496573179946 2.2113960372588783 6.42528732813991 0 0 0
25 444 1 0 0.15657648449703387 4.1468860883373155 6.259769318572231 0 0 0
33 444 1 0 2.9121789683724773 1.5394079133433014 6.982706173801401 0 0 0
26 444 1 0 1.2873619058050634 3.447754156244746 6.899976594661685 0 0 0
31 444 1 0 3.4921053467001286 2.168669974884974 8.113988460611633 0 0 0
29 444 1 0 3.0390260454107505 3.4186398475771824 8.553798986800976 0 0 0
27 444 1 0 1.9176366526937516 3.993446549809187 7.98192059201519 0 0 0
30 444 2 0 3.5323677608220505 4.01478088055921 9.320209328669675 0 0 0
150 444 3 0 -0.6155017097565301 4.891792832642226 6.939375725231492 0 0 0
32 444 2 0 4.312311538962845 1.7550496701127802 8.661054428721144 0 0 0
396 444 3 0 4.791453391237728 0.24158229107630325 6.6671960928606016 0 0 0
28 444 2 0 1.6388428924866754 4.985673603646501 8.3714584000665 0 0 0
1398 444 2 0 24.47630743546871 24.602306817413602 10.77852182256806 0 0 0
2533 444 1 0 8.03087362344489 -0.707814999772676 8.648381733211222 0 0 0
2537 444 2 0 7.8618529480186945 0.32341150238088323 8.544740424729337 0 0 0
2421 444 1 0 11.841244624850258 12.818505890488389 0.10590968193685324 0 0 0
2447 444 2 0 17.17717600293334 19.589845706856252 -0.6905854575780166 0 0 0
2767 444 1 0 0.24721790060876425 12.5826073078838 9.826743863898063 1 0 0
2771 444 1 0 0.6711878103944566 11.300138056202583 10.292102854701414 0 0 0
2772 444 2 0 0.005124573962685508 12.797003137644488 8.796666692985237 1 0 0
2774 444 6 0 0.9627777979252172 10.18300959951444 9.273046384801422 0 0 0
2776 444 2 0 1.7207979298268772 9.480055880089619 9.587883715228909 0 0 0
2777 444 5 0 -0.23344033608121273 9.52512592264582 8.883839931019267 0 0 0
2782 444 2 0 0.7048914755952198 8.112984867269986 7.5447020398718605 0 0 0
2765 444 1 0 0.17824415458560083 13.596901494423275 10.746866657490235 1 0 0
2768 444 2 0 -0.03447802994879989 14.578289856454358 10.368845765271548 1 0 0
2775 444 2 0 1.4184758737379426 10.699477786048092 8.347799264253156 0 0 0
2779 444 1 0 -0.2422231930900991 8.523637979297664 7.994726607431679 0 0 0
2769 444 1 0 1.0268182969833048 11.121466885299672 11.641762686007112 0 0 0
2764 444 1 0 0.41884115950084655 13.45505491337695 12.075204580169284 0 0 0
2538 444 2 0 9.317728521785748 -0.6441644173225117 10.344562793014534 0 0 0
1763 444 2 0 25.09784371742835 23.556726375881055 -0.4292955232100355 0 0 0
1340 444 2 0 25.128283413934795 18.738942685677635 6.517306085579456 0 0 0
2757 444 1 0 -0.6646740835528665 15.633624405993519 12.660618099476386 1 0 0
433 444 2 0 2.6872022398871236 2.073968894327334 -0.6675307816219962 0 0 0
1781 444 2 0 26.866624062160533 19.230555265866823 9.16152802027825 0 0 0
2773 444 2 0 1.3933756085395814 10.151560566699766 12.044403611052815 0 0 0
2422 444 2 0 9.80567989923547 12.378401812837268 0.5280684458717768 0 0 0
430 444 2 0 3.1747854306306262 -0.9251658122087325 1.861782405051678 0 1 0
2170 444 2 0 15.399303770130071 27.528943505778674 10.318569966845935 0 0 0
2534 444 1 0 8.858934570756343 -1.2481807979929493 9.581748855499145 0 0 0
1782 444 2 0 27.807114998241524 16.946819197841737 10.290166061698105 0 0 0
2419 444 1 0 10.615902187517065 12.22125664339635 -0.14420496565234786 0 0 0
2425 444 1 0 12.974676246932413 12.505353905033044 -0.6166147721070797 0 0 1
2445 444 2 0 16.131749115088535 17.353801419802625 -0.5211177339559178 0 0 0
2761 444 1 0 0.32433562341192523 14.670720284505125 12.876451025328018 0 0 0
2426 444 2 0 11.909188686674781 13.506724639790018 0.9711809293743705 0 0 0
2174 444 2 0 14.569219716317775 27.379690346496396 12.698041282288237 0 0 0
2408 444 1 0 9.42916793111697 8.680433303840484 -0.21086659242351624 0 0 1
2428 444 1 0 14.255058707146132 13.232959040960193 -0.34945259483303426 0 0 1
2431 444 1 0 16.364518947910437 14.228160735735635 -1.1778760487687354 0 0 0
1400 444 2 0 23.007723159217466 26.165532564289634 9.570441256054142 0 0 0
1402 444 1 0 25.15961207817813 25.25983627175112 6.997800446751984 0 0 0
1401 444 1 0 24.10071382368947 25.92370032266401 7.648496100407104 0 0 0
1397 444 1 0 24.609612727841128 24.74362473861194 9.748738891931259 0 0 0
1394 444 1 0 25.93706925464003 24.323604256485833 7.7240242126652285 0 0 0
1399 444 1 0 23.882280817284027 25.666765909867692 9.0262382642824 0 0 0
1395 444 1 0 25.70935125475401 24.12158689578246 9.08597060081044 0 0 0
1396 444 2 0 26.299123419031034 23.39744199640424 9.592671016532071 0 0 0
2444 444 1 0 17.786549706687914 18.70439703960574 -0.45890224305688454 0 0 0
1777 444 1 0 27.94953528197178 18.964933980826586 9.215323323456964 0 0 0
2410 444 5 0 7.682454066282744 7.59013669798169 -1.0332678142146237 0 0 0
2755 444 1 0 -0.7983177536939219 16.88753476892802 13.335197140906761 1 0 0
2414 444 5 0 8.978998144663619 9.431974072743747 -1.2808372232056 0 0 0
2558 444 2 0 12.253013658200791 -0.6417140712421252 15.603291310354887 0 1 0
2566 444 2 0 16.479361019770387 0.7218136743544947 17.005262319218645 0 0 0
2557 444 1 0 14.32313305959758 -0.53900197159563 16.16032239247366 0 1 0
2562 444 2 0 14.209261799684041 -0.052764506224580066 17.092108060079802 0 1 0
2565 444 2 0 17.625349946544716 0.005859014834234566 15.892920972996045 0 0 0
2564 444 6 0 16.825299022785494 -0.2495189741745092 16.581708611557108 0 0 0
1296 444 3 0 27.60530253759409 3.5084970957929027 24.147655671732373 0 0 0
1307 444 4 0 27.969682855279757 4.502427121055952 22.38061372276907 0 0 0
1801 444 1 0 27.954083150549188 12.45693943997502 16.063494361138847 0 0 0
1210 444 2 0 23.509718994480558 -0.34615963442172604 17.390353495804305 0 0 0
1209 444 1 0 23.992285552318098 0.4660747397753364 17.843100679350318 0 0 0
1213 444 1 0 25.86591198504119 2.0648530652852113 17.72386140046275 0 0 0
1211 444 1 0 24.98407133159159 1.122472804611778 17.093000320744057 0 0 0
1212 444 2 0 25.211917039419802 0.895523030742406 16.04912681149241 0 0 0
1208 444 1 0 24.0128228706809 0.6923445219481641 19.29115813739272 0 0 0
1215 444 1 0 25.786922629611958 2.414223173880907 19.083997004932378 0 0 0
1216 444 1 0 24.809997993549377 1.7469888297964304 19.84166968648777 0 0 0
1218 444 1 0 26.623765102063878 3.4795317990082175 19.74407187795399 0 0 0
1207 444 1 0 23.07774725791708 -0.12881485386803515 20.132430266716078 0 0 0
1214 444 2 0 26.69167307717053 2.4265215143079715 17.067105541788656 0 0 0
1290 444 3 0 27.246259846914615 4.421460269683038 19.094125009631632 0 0 0
1268 444 3 0 22.15360750373054 -0.8434280900327786 19.58883284167075 0 0 0
1308 444 4 0 27.9958660796252 6.288635490036679 20.074674016392834 0 0 0
641 444 3 0 3.0645188272341386 24.433458315244206 27.466507341872884 0 0 0
2763 444 2 0 1.964037972184111 14.278015559525844 14.294345370916076 0 0 0
2567 444 5 0 17.38541062692824 -1.08344366616479 17.63926146261093 0 0 0
1802 444 2 0 27.44098571750675 13.360996708678739 14.171828097251286 0 0 0
1324 444 2 0 24.523945433431113 -1.265578345727287 24.472619736399423 0 0 0
1806 444 2 0 26.915882799902366 12.236001801935439 16.17983988337566 0 0 0
2063 444 5 0 16.754807910649927 8.9759074629717 27.816939656889932 0 0 0
2555 444 1 0 13.247426481020758 -0.9247450661609272 15.34335936798232 0 1 0
2070 444 5 0 18.945313632757905 8.237427279671259 27.84732881369262 0 0 0
1810 444 2 0 27.91751839464437 11.892632019563475 18.777538516744798 0 0 0
2042 444 1 0 12.030694462104675 16.268160108276263 26.289699538132332 0 0 0
2055 444 1 0 13.456445369697644 10.457576970365007 28.10493353774642 0 0 0
588 444 1 0 6.69203843729328 26.082496106101072 22.415306411271594 0 0 0
852 444 3 0 3.155043715881866 27.659365199559094 24.189795927015307 0 0 0
2759 444 1 0 1.161905218295096 14.93448413766517 14.021674130907444 0 0 0
2753 444 2 0 1.3915561777360004 18.74921728333064 15.164206583040528 1 0 0
2760 444 2 0 1.7095110835550906 16.274201769517887 15.703658430440093 0 0 0
2751 444 6 0 0.25741033300330196 18.497429348265538 15.078957938075416 1 0 0
2744 444 1 0 -0.9010685810331481 17.450127482261806 17.170747594386025 0 0 0
2752 444 2 0 -0.24006160446025837 19.278894257521184 14.43210725407345 1 0 0
2750 444 5 0 -0.392132044769815 18.52526695764562 16.446952992095447 1 0 0
1323 444 2 0 23.13618339929241 -0.8513218198820915 25.449424561800967 0 1 0
873 444 2 0 3.5055452427840796 27.261882908843592 25.029907725818177 0 0 0
2030 444 1 0 9.452466459333307 18.20282037879249 27.647885653712315 0 0 0
2754 444 1 0 0.14080728517324914 17.155352157945707 14.39617088862844 1 0 0
2756 444 1 0 1.1223713658458678 16.19897675545627 14.678052049837694 0 0 0
1317 444 2 0 27.181841246542195 2.6480524430377788 24.22547315557169 0 0 0
2569 444 1 0 18.32962820697189 -0.5548634478571738 18.50154597687281 0 0 0
2746 444 5 0 -0.9399885883050703 19.320619574292703 18.463031355565015 1 0 0
2745 444 1 0 -0.39146147894174976 19.557790653952512 17.26138325032414 1 0 0
841 444 3 0 5.9005101717638615 26.865002064258775 23.145565178146526 0 0 0
2749 444 2 0 0.08383836172488213 20.461231303299105 17.0221939973048 1 0 0
472 444 2 0 1.9192853509308418 22.157269774598024 17.57984423171521 0 0 0
474 444 2 0 4.153867884514122 22.9373463892384 16.8784481558137 0 0 0
594 444 3 0 0.5591643903725789 21.65909713291079 19.87813388439154 0 0 0
471 444 1 0 2.3365753576036887 22.971382433472943 18.102730179885235 0 0 0
473 444 1 0 3.6428544516409262 23.369564753197892 17.74509530368023 0 0 0
470 444 1 0 1.6738421593543815 23.584490741949917 19.16734843103324 0 0 0
475 444 1 0 4.156642356850593 24.548866168100425 18.38659988437443 0 0 0
477 444 1 0 3.5004464559666255 25.20160577565725 19.45767949935276 0 0 0
478 444 1 0 2.2281016900186597 24.76030298186847 19.76030768754056 0 0 0
480 444 1 0 4.160337367535912 26.312113891661742 20.11595737370395 0 0 0
469 444 1 0 0.43544209817499735 22.86050434395386 19.698709580886973 0 0 0
476 444 2 0 5.069718566320591 24.931586807707806 17.974234231771295 0 0 0
840 444 3 0 5.445934493261379 26.411151366577485 20.064903314938377 0 0 0
839 444 3 0 3.500493765393604 27.133459061501807 20.833991217142646 0 0 0
2770 444 2 0 0.8914401725266183 11.931464659621383 13.629668314657485 0 0 0
2034 444 2 0 10.392050660567008 18.017704267493546 28.075842506592437 0 0 0
2184 444 2 0 11.199266896628478 27.225009683986706 15.840471210141231 0 0 0
584 444 2 0 8.709470407370267 24.632260076337605 21.460397631187533 0 0 0
2561 444 1 0 15.68743568744459 -0.8255942125704696 15.782019924199925 0 0 0
2180 444 2 0 12.195888292823739 27.674668731168886 13.72303801790963 0 0 0
1300 444 4 0 20.39915082633962 6.937438921799793 27.945296916050193 0 0 0
1270 444 3 0 20.0738326171983 0.5168251256642682 21.50409123818358 0 0 0
1178 444 2 0 18.256340422548885 2.294569629052054 21.66541075166316 0 0 0
1177 444 1 0 18.64857432544306 2.666955004392923 22.634796851604104 0 0 0
1175 444 1 0 18.00676429538372 3.7593633140664817 23.125505257136098 0 0 0
1173 444 1 0 18.55726613099725 4.416396111824598 24.26894504041679 0 0 0
1172 444 1 0 19.70387998936554 3.8674920674336084 24.960988030852494 0 0 0
1179 444 1 0 19.768009124349955 2.1117591320393263 23.208818020459333 0 0 0
1176 444 2 0 17.09677391846444 4.125511299978269 22.678712560517834 0 0 0
1180 444 1 0 20.25595422851125 2.667868042444166 24.39404658330921 0 0 0
1182 444 1 0 20.268320273181104 0.8034754939425566 22.701524939441292 0 0 0
1171 444 1 0 20.214041077623143 4.519136775353528 26.16105357131584 0 0 0
1258 444 3 0 20.24436448990546 5.756579632755828 26.192513967712532 0 0 0
1174 444 2 0 17.99242672295015 5.193644757111514 24.732347895678714 0 0 0
1269 444 3 0 20.956215493660885 0.007454930773068691 23.441786059068132 0 0 0
1181 444 2 0 21.108190411208877 2.2212647639545517 24.969816870285158 0 0 0
1257 444 3 0 21.06438048936139 3.910355207366525 26.854542375779904 0 0 0
1309 444 2 0 25.21465655043893 3.9803858714437093 27.53432586408868 0 0 0
1299 444 4 0 22.675907898180114 4.894426643924317 27.993026009311226 0 0 0
842 444 3 0 6.792642539301551 26.326541804304096 21.16667703955731 0 0 0
1217 444 2 0 24.672897404956554 1.9835196694423554 20.907934320705127 0 0 0
1267 444 3 0 23.280740044855243 -0.13332782484089134 21.36568175344688 0 0 0
1289 444 3 0 26.74464982377017 3.3899504557051356 21.003261707875698 0 0 0
1157 444 2 0 25.084077200148933 6.274295415620947 24.92405803516029 0 0 0
1251 444 3 0 23.35858745840073 6.462199278444202 26.940156914082525 0 0 0
1287 444 3 0 26.9815312102678 6.0572297501815004 23.182604396883104 0 0 0
1292 444 3 0 24.382006662538902 3.6213903881895746 28.02190054490011 0 0 0
2039 444 2 0 10.528799707040953 18.134631312460368 24.95625758661987 0 0 0
2057 444 1 0 14.722114604986466 10.327601101375864 27.483895511840498 0 0 0
2050 444 1 0 13.08769953646618 12.662731856061296 27.048288012131493 0 0 0
1294 444 3 0 23.53047228393366 -1.1895132697913249 24.584541926308056 0 0 0
2068 444 2 0 17.409359708537075 7.408261393438109 26.57625473427074 0 0 0
2051 444 1 0 14.363862131586698 12.502920055407404 26.393912207382535 0 0 0
2062 444 2 0 15.183157422858024 8.529365550094292 26.594653682668056 0 0 0
2065 444 1 0 17.65628054544001 8.052104561453856 27.322297615060762 0 0 0
2058 444 2 0 16.09665552544181 11.17595772517817 26.167712623558458 0 0 0
2053 444 1 0 15.08432560912578 11.250826111919938 26.523425855468616 0 0 0
2060 444 6 0 15.322634818836377 8.98618153918777 27.498617047090846 0 0 0
2054 444 2 0 14.627798331764813 13.188064068013855 25.601120248738198 0 0 0
1154 444 2 0 24.541720916584715 8.50207696253962 21.20002965996987 0 0 0
1288 444 3 0 26.258374671650888 6.510010876960908 21.106198779599875 0 0 0
1158 444 1 0 26.158785041528223 6.640888684593417 22.414633835740133 0 0 0
1147 444 1 0 22.676533698406683 6.980584015450899 26.006660744274086 0 0 0
1252 444 3 0 21.41746745004199 6.810612673014517 26.073340881020776 0 0 0
1150 444 2 0 21.835469835344302 8.93941829275434 24.419192737704062 0 0 0
1156 444 1 0 24.48542015185724 6.894875385181481 24.256842199330425 0 0 0
1152 444 2 0 22.62027766585812 9.468238816186325 22.08990292395471 0 0 0
1155 444 1 0 24.960266875303258 7.285584935731486 22.996211705544397 0 0 0
1148 444 1 0 23.2956677897945 7.470741798808935 24.75889464211482 0 0 0
1149 444 1 0 22.634875332049837 8.436039191651412 24.014362382638954 0 0 0
1153 444 1 0 24.21248716015943 8.142398645286258 22.21419206772792 0 0 0
1151 444 1 0 23.08254931574209 8.745842517646597 22.751083666481243 0 0 0
484 444 2 0 -0.6445385437002352 17.4822701100714 23.572860164348736 0 0 0
624 444 3 0 4.055406223721981 19.326989505521105 27.070904195533753 0 0 0
488 444 2 0 2.23534344792988 17.556560718357257 26.754673293786816 0 0 0
486 444 2 0 0.5799800941880244 16.21851858799351 25.44270516250419 0 0 0
483 444 1 0 0.09448763542610994 18.027057266326537 24.12986561217993 0 0 0
485 444 1 0 0.7657345642634186 17.31108544124827 25.187181888852212 0 0 0
487 444 1 0 1.8379967870088583 18.00183213549882 25.887334753005266 0 0 0
482 444 1 0 0.54514788265232 19.314867170004888 23.772946568434264 0 0 0
489 444 1 0 2.1729082658324916 19.318984126101036 25.560767839780112 0 0 0
596 444 3 0 -0.7344802211853667 19.36292195920484 21.825510173475482 0 0 0
490 444 1 0 1.5662467828783952 20.009426444162653 24.468898324332166 0 0 0
492 444 1 0 3.36558824618752 19.99966664816556 26.25350535027798 0 0 0
481 444 1 0 -0.20038254451503246 20.002791833262027 22.787904773819026 0 0 0
2037 444 6 0 9.86163025729003 17.260326824917566 25.395190950202338 0 0 0
2040 444 1 0 10.666369276564176 16.053069093936223 25.884155770714123 0 0 0
2047 444 1 0 12.223834865347932 13.832819473046515 26.730437642820394 0 0 0
2036 444 5 0 9.081064644285505 17.914079989707762 26.41604002070154 0 0 0
2031 444 1 0 7.832530672028205 18.48912844878806 26.302653185967973 0 0 0
2035 444 2 0 7.168594029338052 18.217269195528438 25.46299520023996 0 0 0
2044 444 2 0 9.134756772597864 14.648239429584395 25.504361677781183 0 0 0
2043 444 1 0 10.879528447163018 13.651130137179013 26.34826140695597 0 0 0
2048 444 2 0 10.32262032607831 12.64614387812734 26.431362606702255 0 0 0
652 444 4 0 5.883901450417315 20.312760576675544 27.727758318931258 0 0 0
2041 444 1 0 10.15775180420832 14.786382113924045 25.807609360098493 0 0 0
2038 444 2 0 9.111184611910206 17.040637972952418 24.62647456980783 0 0 0
2045 444 1 0 12.782113766593367 15.134380676240088 26.632255842225874 0 0 0
2748 444 2 0 -1.080215191666239 16.408750994384338 16.769347874483294 0 0 0
876 444 2 0 -0.11119270121796321 24.501004709711015 23.574670718637062 0 0 0
2046 444 2 0 12.419972841405244 17.286486724515765 26.31343826184309 0 0 0
479 444 2 0 1.7551690552209445 25.152857100082503 20.608686298950673 0 0 0
593 444 3 0 -0.3731218725856338 23.58770694137921 20.3701600518721 0 0 0
2061 444 2 0 14.77352575499518 8.265517489395165 28.156421971829594 0 0 0
2049 444 2 0 13.717079237076591 15.25676198219956 27.01180173794894 0 0 0
595 444 3 0 -0.38664964564034454 21.238958416518027 22.894261517669396 0 0 0
491 444 2 0 1.783913265929238 21.10915969339743 24.27541020601314 0 0 0
877 444 2 0 2.897642560079537 24.68968735634228 26.52955119259339 0 0 0
623 444 3 0 3.418951624887762 21.267663757350967 26.359062759057444 0 0 0
651 444 4 0 4.129254904212804 22.59011534724868 27.751564182777074 0 0 0
585 444 1 0 7.30884127186514 24.944770956470546 23.06577760975479 0 0 0
586 444 1 0 6.824376948529857 24.445499758416616 24.31944968005905 0 0 0
579 444 1 0 8.396795601548684 22.639663736231963 24.235571182996427 0 0 0
583 444 1 0 8.337100709081914 24.285728785104535 22.44174164486978 0 0 0
626 444 3 0 6.401278236309021 21.3832750506255 26.10555156244121 0 0 0
577 444 1 0 6.531158127784594 22.613933230188167 26.01849138998581 0 0 0
625 444 3 0 5.858257123035133 23.27250910457306 26.83827888726666 0 0 0
581 444 1 0 8.974430701162936 23.18909076259538 23.031101198620416 0 0 0
582 444 2 0 9.814944504559339 22.61707574067507 22.639560091606107 0 0 0
578 444 1 0 7.294748844827725 23.280399549359156 24.898523171286723 0 0 0
587 444 2 0 6.022396299725739 24.936855502082807 24.83199062503771 0 0 0
580 444 2 0 8.576041783122596 21.659988014353267 24.587792536481096 0 0 0
2052 444 1 0 12.60020893103075 11.596619056417488 27.79507298355812 0 0 0
2572 444 2 0 18.776348190007415 0.4291656223980749 18.360376409876157 0 0 0
2032 444 5 0 7.41377049811832 19.065765187852325 27.44706510829324 0 0 0
644 444 4 0 -1.2043381638481272 20.47450004359798 20.11528453338679 1 0 0
637 444 3 0 -0.9903481179978955 24.221536986801134 23.32347736355697 1 0 0
2187 444 2 0 11.56754173224114 27.529515956850545 18.27200183245614 0 0 0
878 444 2 0 2.3000941490745923 24.53047362407519 28.09549061443747 0 0 0
1818 444 5 0 28.022336939844013 7.9079781900177695 18.749360249173176 0 0 0
1304 444 4 0 20.348820716730593 -1.2831638087655295 20.56108583814423 0 0 0
1318 444 2 0 27.886736694981703 3.9451698515775124 25.0199212099562 0 0 0
874 444 2 0 2.2588639373295223 27.969111046162187 24.29994578331273 0 0 0
2056 444 2 0 11.580824581641531 11.666064145374197 28.067909833583766 0 0 0
1103 444 1 0 18.119217411964502 3.8563175347502794 32.94111916152047 0 0 0
1105 444 1 0 18.665936528977788 4.5217710953973995 31.885708006735467 0 0 0
1101 444 1 0 18.75264586521372 2.750676150052735 33.50640808791561 0 0 0
1100 444 1 0 19.846895991488037 2.0937520524571225 32.8055871345964 0 0 0
1107 444 1 0 19.743219111493516 3.9109140538130607 31.155766749625126 0 0 0
1106 444 2 0 18.182515749780233 5.425400349323272 31.55211955593815 0 0 0
1104 444 2 0 17.3357124939637 4.443390712573284 33.51893681062859 0 0 0
1102 444 2 0 18.289912978241414 2.226556456296687 34.34158448058193 0 0 0
1244 444 3 0 19.78501074379265 0.26722059688564515 34.33567795440432 0 0 0
1108 444 1 0 20.306401927021614 2.664059746189027 31.640168023319436 0 0 0
1110 444 1 0 20.385924188700866 4.684105841597363 30.032501209740897 0 0 0
1256 444 3 0 19.671564853961677 5.327286861319133 29.248564366102606 0 0 0
1099 444 1 0 20.49743304471456 0.9257755374557581 33.50217695333793 0 0 0
1109 444 2 0 21.13507789743586 2.110071876710168 31.217756906644436 0 0 0
1255 444 3 0 21.6574319285007 4.6090166604630305 29.857834027694135 0 0 0
1243 444 3 0 21.77429106049655 0.7675182683734241 33.44647065962031 0 0 0
1245 444 3 0 22.93092131335345 0.9244466559594191 34.66896887002316 0 0 0
1263 444 3 0 26.315009544779038 4.537828515378478 34.52028519997298 0 0 0
1121 444 2 0 24.646892551425 2.7785350446493986 34.883912402858 0 0 0
1253 444 3 0 22.759628426052615 5.719401373994096 29.884380077241552 0 0 0
1122 444 1 0 26.27956350469436 4.643316236371206 35.8193470706918 0 0 0
1297 444 4 0 22.731887469182315 -1.0086987365276037 33.620983085496405 0 0 0
1923 444 2 0 27.96496127215859 16.005919264577077 42.11468759989668 0 0 0
2629 444 1 0 -1.1354476266901161 14.443594431987849 40.35809830462237 0 0 0
757 444 1 0 2.0457422836107844 21.798500167966672 37.981729639191805 0 0 0
1310 444 2 0 24.55851387078616 2.8954406874359764 28.63307053771814 0 0 0
751 444 1 0 4.019031550905226 25.139571267022514 36.2173379532261 0 0 0
2066 444 1 0 18.756714635565274 9.27130927676693 28.708462876311977 0 0 0
2067 444 2 0 16.97126138633208 10.49723380472975 29.335724031191646 0 0 0
2069 444 2 0 19.460814151469478 9.61265755009624 29.424002762302937 0 0 0
2064 444 1 0 17.42940208351102 9.762425615665402 28.665547260261803 0 0 0
885 444 2 0 2.322559335806587 26.767614932603824 32.01473025424316 0 0 0
1924 444 1 0 28.007942209931738 13.313892495743938 41.853322860532785 0 0 0
2208 444 1 0 9.737902855083867 27.50811700881779 42.11937552594405 0 0 0
1265 444 3 0 26.24694863016435 5.652366655351937 33.3584571350828 0 0 0
1169 444 2 0 24.34714655945344 5.9761329976067765 31.629151334042252 0 0 0
1254 444 3 0 21.935681432110417 7.654733292432428 29.20350565849484 0 0 0
1170 444 1 0 26.138964792431114 6.924209510769793 33.44008293063022 0 0 0
1159 444 1 0 22.625999053894372 6.970772675937655 30.00536005055805 0 0 0