LAMMPS data file via write_data, version 7 Feb 2024, timestep = 2259922, units = real

2256 atoms
5 atom types
2664 bonds
9 bond types
5136 angles
16 angle types
5088 dihedrals
3 dihedral types
3312 impropers
1 improper types

-0.8999999999999999 45.53821400000001 xlo xhi
-0.8999999999999999 45.51939100000001 ylo yhi
-0.8999999999999999 45.77366100000001 zlo zhi
-0.051211 0.00346 -0.054488 xy xz yz

Masses

    1    12.010700000 # C_R
    2     1.007940000 # H_
    3    15.999400000 # O_2
    4    65.380000000 # Zn2f2
    5    14.006700000 # N_R

Bond Coeffs

    1      391.669513        1.458000  # C_R C_R
    2      714.557442        1.269010  # C_R O_2
    3      462.655054        1.379256  # C_R C_R
    4      357.440381        1.081418  # C_R H_
    5      111.058393        2.079698  # O_2 Zn2f2
    6      602.435128        0.966432  # O_2 H_
    7       19.441823        3.080101  # Zn2f2 Zn2f2
    8      140.566051        1.988323  # Zn2f2 N_R
    9      663.718927        1.345073  # N_R C_R

Angle Coeffs

    1      137.714246              -1               3 # C_R C_R O_2
    2      206.778426              -1               3 # O_2 C_R O_2
    3      102.183280              -1               3 # C_R C_R C_R
    4      111.297508              -1               3 # C_R C_R C_R
    5       57.289016              -1               3 # C_R C_R H_
    6       39.441082              -1               3 # C_R O_2 Zn2f2
    7       17.706467              -1               3 # Zn2f2 O_2 H_
    8       44.863234              -1               3 # H_ O_2 H_
    9       46.978550              -1               3 # O_2 Zn2f2 O_2
   10       13.328014              -1               3 # O_2 Zn2f2 Zn2f2
   11       55.506670              -1               3 # O_2 Zn2f2 N_R
   12       15.376901              -1               3 # Zn2f2 Zn2f2 N_R
   13       41.111398              -1               3 # Zn2f2 N_R C_R
   14      120.000516              -1               3 # C_R N_R C_R
   15       79.786967              -1               3 # H_ C_R N_R
   16      153.699352              -1               3 # N_R C_R C_R

Dihedral Coeffs

    1        1.250000              -1               2 # O_2 C_R C_R C_R
    2        6.737110              -1               2 # C_R C_R O_2 Zn2f2
    3        3.368555              -1               2 # C_R C_R C_R H_

Improper Coeffs

    1        2.000000        1.000000       -1.000000        0.000000               0 # C_R C_R O_2 O_2

Pair Coeffs

    1        0.105000        3.430851 # C_R C_R
    2        0.044000        2.571134 # H_ H_
    3        0.060000        3.118146 # O_2 O_2
    4        0.124000        2.461553 # Zn2f2 Zn2f2
    5        0.069000        3.260689 # N_R N_R

Atoms # full

26 444 1 0 1.6809867821897986 3.220070925902053 8.22478526509163 0 0 0
34 444 1 0 2.3668197529094614 2.20401646257342 7.519096837969178 0 0 0
35 444 2 0 2.209533662208849 2.0814916694280736 6.4553284983373 0 0 0
47 444 2 0 2.962264986921373 5.287278641698951 2.8490542206706864 0 0 0
133 444 1 0 7.058247505157201 3.7623302050161906 0.7739218176025098 0 0 0
134 444 1 0 7.747870334987397 3.039460558051363 1.8932735145500281 0 0 0
142 444 1 0 7.08883920441869 2.0462878963472733 2.6344423277218967 0 0 0
143 444 2 0 6.121361630205609 1.7159244110396203 2.345512053494357 0 0 0
151 444 3 0 1.0691101435210806 5.1712288196005645 4.492631914056632 0 0 0
181 444 3 0 5.782195282176971 3.7597907438075198 0.6946498250052495 0 0 0
137 444 1 0 9.718241555566395 2.7477789663009364 3.2726984426214183 0 0 0
179 444 3 0 4.798875269579561 5.001189447435854 1.0866839623720232 0 0 0
182 444 3 0 7.7486399058574555 4.496627955305646 -0.00541196426884738 0 0 0
48 444 1 0 5.162677621892822 6.12596728187499 1.566288338394132 0 0 0
135 444 1 0 9.06882704794367 3.413822901344503 2.2205096722770876 0 0 0
37 444 1 0 1.7781140250242022 5.956606417175609 5.186840878329246 0 0 0
46 444 1 0 3.5477920557689253 5.9818852507846 3.447126948394804 0 0 0
38 444 1 0 3.1034317009180143 6.321058492178766 4.722535292528997 0 0 0
25 444 1 0 0.7067540837400743 4.062092428300408 7.546126425326801 0 0 0
150 444 3 0 0.8588362810759975 5.344747296799877 7.558793311973766 0 0 0
33 444 1 0 3.367183999394556 1.4459313697395246 8.17404013287361 0 0 0
27 444 1 0 1.8920245139854788 3.3840745808629245 9.595358371397573 0 0 0
141 444 1 0 7.735435472017857 1.4335927736397776 3.7482637262512086 0 0 0
31 444 1 0 3.566175723106108 1.6347393480366845 9.555124255953496 0 0 0
149 444 3 0 -0.0711240139201611 3.516875538261607 6.711667541724372 0 0 0
136 444 2 0 9.55990703598078 4.290543969108436 1.7906752993043518 0 0 0
139 444 1 0 9.074616566230056 1.7806769135306686 4.0230480103766 0 0 0
36 444 1 0 4.132290490907399 0.4240836269182058 7.402250070145133 0 0 0
395 444 3 0 3.9363591286259427 0.32819139393654284 6.152650809375155 0 0 0
144 444 1 0 7.037294726540351 0.431137081190863 4.509720743622163 0 0 0
140 444 2 0 9.599663338292443 1.242117353478478 4.774699083554488 0 0 0
28 444 2 0 1.4201919351114345 4.220373736389121 10.113583754698139 0 0 0
398 444 3 0 7.19175237322416 0.3443868364418432 5.7524998971589305 0 0 0
32 444 2 0 4.31970230622739 1.0387156277108418 10.098784110938498 0 0 0
29 444 1 0 2.81425550979462 2.598565178217078 10.252623839192196 0 0 0
396 444 3 0 4.946159776072028 -0.36784949987571924 7.992042492052544 0 0 0
397 444 3 0 6.187012750665881 -0.2938606236824346 3.8928333663452643 0 0 0
152 444 3 0 1.3507357858862172 6.391287767894635 6.3293052186873595 0 0 0
45 444 1 0 4.7369653958646065 6.500860420570827 2.941062787148075 0 0 0
208 444 4 0 7.044563658402559 6.345206767705875 -0.8408102114553184 0 0 0
2079 444 2 0 9.010714252753525 7.138484638149146 1.1796559703481697 0 0 0
180 444 3 0 6.037101743877853 6.868482909819624 0.9728163511536214 0 0 0
2139 444 2 0 8.237478311337103 0.950501908392712 8.433093398078586 0 0 0
2143 444 1 0 9.71088398368393 0.0599620304993459 9.711820854108412 0 0 0
2141 444 1 0 8.626981886031832 0.015039076506833116 8.827621446162315 0 0 0
408 444 3 0 3.0924076991501668 -0.8450798059213359 3.402999181946282 0 1 0
200 444 4 0 -0.70482735173752 6.644826526737541 6.923032378633826 1 0 0
2238 444 5 0 -0.8083107563282486 8.167637019739425 8.164477195002972 1 0 0
2083 444 1 0 10.297598235344141 8.662426696857551 0.44449854597787875 0 0 0
2145 444 2 0 10.077372405180588 1.06660239591896 9.980230333392681 0 0 0
474 444 2 0 3.9021651636705585 17.73044581964283 10.443848456739296 0 0 0
434 444 2 0 2.779756857628731 2.609054883258864 -0.6091919379851227 0 0 1
42 444 2 0 5.795114427960231 8.179041603411425 5.70343402201255 0 0 0
2081 444 1 0 9.205767312701855 7.806981030700195 0.37401957895939497 0 0 0
2244 444 2 0 0.8648016747474683 11.015775720832831 8.924288816542864 0 0 0
41 444 1 0 5.1807862602343935 7.52869869343564 5.1003463449412365 0 0 0
2240 444 1 0 0.14190945589281534 9.12254662326172 8.101616746662817 0 0 0
1350 444 2 0 10.596849829974206 17.462636308195215 2.6040484361053307 0 0 0
44 444 2 0 6.473345021252397 7.70124516373726 3.436238595321298 0 0 0
2086 444 1 0 10.564353277694028 9.565985226083932 -0.6253681020655336 0 0 0
2078 444 5 0 8.456695432267011 7.748260837861846 -0.7758193806146998 0 0 0
43 444 1 0 5.5384375598266935 7.314949895668015 3.777902195318744 0 0 0
40 444 2 0 3.6556871612224735 7.293563850755712 6.66025392048191 0 0 0
39 444 1 0 3.91668738448259 7.087143485892014 5.571707650885491 0 0 0
2242 444 1 0 0.12901252352867143 10.222269323526005 8.985324783097827 0 0 0
2237 444 2 0 0.9087332782531978 9.019118815042388 7.367199830209197 0 0 0
2249 444 2 0 -0.6835088817398554 13.034870614392219 9.574123100433203 1 0 0
2251 444 1 0 -0.757546693343196 12.769315136676177 10.587141514893226 1 0 0
199 444 4 0 -0.8257795928656599 4.447108235168521 4.950448825250023 1 0 0
430 444 2 0 2.293656209835962 -0.2895532958494078 3.5225262798843926 0 1 0
138 444 2 0 10.686668259028393 3.0509015760356655 3.5671575710682712 0 0 0
2246 444 1 0 -0.8976040219709178 10.286135191047569 9.939089802868308 1 0 0
1966 444 1 0 9.845263977045084 22.239688482036627 10.521494691050307 0 0 0
1176 444 2 0 10.384363141694324 1.7192835124221602 19.542874286572793 0 0 0
30 444 2 0 3.0460852744618503 2.6966016134235034 11.280726395233636 0 0 0
2149 444 2 0 10.515002420741373 0.6512794930740391 12.312768452213465 0 0 0
873 444 2 0 3.2051461700336588 21.807474501223886 18.588986380471276 0 0 0
486 444 2 0 3.1243694970239235 10.83880424318877 18.31215823284473 0 0 0
485 444 1 0 3.0878559387728632 11.953751890061165 18.43898292988223 0 0 0
482 444 1 0 1.9203758176776815 13.984924011853682 17.814282813240023 0 0 0
483 444 1 0 2.060667888164718 12.594402765676218 17.726757538594665 0 0 0
487 444 1 0 3.942634085709962 12.650688468073463 19.28606418418367 0 0 0
488 444 2 0 4.659599104805615 12.147553486198394 19.88800482682243 0 0 0
489 444 1 0 3.7618165352394066 14.061318165575699 19.46681343178151 0 0 0
624 444 3 0 5.369148141526816 14.263261203769492 21.212120713674008 0 0 0
484 444 2 0 1.4321748945244166 11.996027481179208 17.06871015007463 0 0 0
596 444 3 0 0.24349502743491236 14.13709475183857 16.106570115872472 0 0 0
1897 444 2 0 8.198326247115327 13.32115859772884 20.329690052366473 0 0 0
1902 444 1 0 9.481088115540222 11.783668310726968 21.117290009266192 0 0 0
1900 444 1 0 8.586015486897542 12.855026437079557 21.21428909206588 0 0 0
2253 444 1 0 -0.7962464288095978 13.777144835012448 11.601237220929775 1 0 0
637 444 3 0 -0.6988012742067965 18.84781928530185 17.576403027135818 1 0 0
1904 444 2 0 9.844013380313479 11.47434689773093 20.1561061012407 0 0 0
2255 444 5 0 -0.8964322750811471 13.398765488361601 12.891051209654018 1 0 0
644 444 4 0 -0.8744013606976052 14.797542056526911 14.351448612607035 1 0 0
643 444 4 0 -0.7493025306282898 17.128294176002974 16.38311499447379 1 0 0
2256 444 2 0 -0.723574168149418 14.833974924404957 11.300101546910097 1 0 0
876 444 2 0 0.09738215348418788 19.055933225151925 18.081132859531134 0 0 0
1963 444 1 0 10.167391390938455 21.6861541577363 11.78039459011018 0 0 0
1961 444 1 0 9.289631555110793 21.90659577102739 12.863159883304983 0 0 0
481 444 1 0 0.9490199280197136 14.733221162758438 16.986803576767656 0 0 0
582 444 2 0 10.499495447326797 17.669456084463597 17.258333082241258 0 0 0
579 444 1 0 8.849692983116874 17.412815388289193 18.677601670182266 0 0 0
1959 444 2 0 9.570339256057443 21.47589063759338 13.838080252014807 0 0 0
490 444 1 0 2.7774013677611284 14.685502330120586 18.68405321060492 0 0 0
479 444 2 0 2.3726428770370416 19.314760357823403 14.837369773737965 0 0 0
473 444 1 0 3.5019444667303525 18.125383972898685 11.37944299644385 0 0 0
594 444 3 0 0.7229393072547723 15.996465861539695 13.822916686309483 0 0 0
581 444 1 0 9.448765743196521 17.988864518759325 17.547484376061664 0 0 0
625 444 3 0 5.676757099794335 17.1917128863985 20.462330995409896 0 0 0
469 444 1 0 0.8896485433374195 17.2324857907299 13.947538743628275 0 0 0
480 444 1 0 4.494847964933742 20.71258737088656 14.017119282568732 0 0 0
840 444 3 0 5.116702790707979 21.606085855441766 13.345300818683134 0 0 0
476 444 2 0 5.056248402117012 19.592916469208685 11.556222887018825 0 0 0
580 444 2 0 9.375065649973571 16.593158700758497 19.165343287069383 0 0 0
595 444 3 0 0.7286419229870267 15.961016105055025 17.24680294657804 0 0 0
587 444 2 0 5.819139103604352 19.01374031902006 18.561505311504064 0 0 0
839 444 3 0 4.437845952649866 20.82091689307444 15.276898512764907 0 0 0
491 444 2 0 2.6503324673254514 15.799353087726795 18.75077501772008 0 0 0
588 444 1 0 6.743304674545669 20.416393423169428 16.386537555089678 0 0 0
492 444 1 0 4.567064284504809 14.845876324149303 20.417552708593355 0 0 0
577 444 1 0 6.936132711241331 17.108424021063456 20.24402049681674 0 0 0
578 444 1 0 7.529969017056397 17.706093718559224 19.037604143295543 0 0 0
585 444 1 0 7.45882464245482 19.3864403342669 17.18518415843253 0 0 0
475 444 1 0 4.216129450040057 19.16318477737797 12.03984593405282 0 0 0
478 444 1 0 2.7009750547339157 18.95698878151713 13.90917774513887 0 0 0
470 444 1 0 2.0272635843609876 17.943024715078074 13.257750655560132 0 0 0
841 444 3 0 5.521104877976683 20.55287264208918 16.523730906295857 0 0 0
623 444 3 0 4.4596646464197995 16.098671796270065 20.47257232979303 0 0 0
471 444 1 0 2.391898327414815 17.54705990718513 11.99565758423751 0 0 0
472 444 2 0 1.8828830638883192 16.74905141618022 11.541138733302743 0 0 0
583 444 1 0 8.78421973828632 18.999934687952255 16.862061386213753 0 0 0
842 444 3 0 7.393615442157591 21.243056226363258 15.676021867669911 0 0 0
584 444 2 0 9.195890664708557 19.34236381807071 15.934855518841966 0 0 0
593 444 3 0 0.16661385294638853 17.883522478844924 14.731047297935442 0 0 0
477 444 1 0 3.816546803488898 19.57094670266163 13.325894083820707 0 0 0
586 444 1 0 6.826242199618328 18.732215695410815 18.292747242954732 0 0 0
626 444 3 0 7.693559076725572 16.482643071850987 21.08276779284633 0 0 0
1906 444 1 0 10.009839164607373 11.208921869607662 22.307711120369323 0 0 0
651 444 4 0 4.712633618407812 16.992488954283054 22.383039451923754 0 0 0
878 444 2 0 2.466501539521972 18.408983824020716 22.330278224749723 0 0 0
1898 444 5 0 8.195871315270354 13.293044088896732 22.412855050588895 0 0 0
652 444 4 0 6.973716173579756 14.907818647959482 22.42345079096652 0 0 0
567 444 1 0 2.779152641381274 12.952538977384071 27.738161234875573 0 0 0
568 444 2 0 2.3118572292004838 12.374425602150833 28.541977840255534 0 0 0
569 444 1 0 3.8907829458163534 12.397163621672208 27.17116898583771 0 0 0
570 444 2 0 4.303063929198599 11.501137072295393 27.549912674606826 0 0 0
571 444 1 0 4.551470978628732 13.004123519749543 26.106741836219303 0 0 0
572 444 2 0 5.444995492472705 12.559823709379796 25.663110942046345 0 0 0
618 444 3 0 0.24710076267794623 14.044812722196912 28.575188147680638 0 0 0
573 444 1 0 4.041908882505256 14.213322045854119 25.607813395667478 0 0 0
566 444 1 0 2.205913164569831 14.132821001586173 27.196854073377438 0 0 0
1899 444 2 0 8.360977624587166 13.176618923559747 24.57032719552959 0 0 0
1901 444 1 0 8.641139464384237 12.771359063333225 23.575569330140212 0 0 0
1903 444 1 0 9.53631786698708 11.72391511711807 23.5527273447873 0 0 0
2187 444 1 0 -0.8778130226829755 11.412627758469622 33.66913892103415 1 0 0
2191 444 1 0 -0.3418562565245429 11.141202756694309 32.41261730963903 0 0 0
2196 444 2 0 0.13522030618137104 11.980324470507293 30.495693548848823 0 0 0
2193 444 1 0 -0.3196969244339213 12.160656557159054 31.46073796049155 0 0 0
858 444 4 0 7.420360574493797 22.250204501836425 29.911925498756574 0 0 0
886 444 2 0 3.346198009770984 21.680738641838428 26.185343942000035 0 0 0
622 444 3 0 5.923533625006861 14.745933335048008 24.19509256203815 0 0 0
2189 444 2 0 0.12280614858340844 10.1955581733068 32.14457273669947 0 0 0
1905 444 2 0 9.95110625355608 11.34468803228409 24.46119460483172 0 0 0
1985 444 2 0 9.681878778217179 19.98545583163613 33.918226189576764 0 0 0
641 444 3 0 3.30836267858696 18.479676459827928 22.759046708387608 0 0 0
756 444 2 0 4.50197231031663 17.31317361582866 33.681022249644506 0 0 0
649 444 4 0 -0.8935184011428356 17.131902033024428 28.299946524633242 1 0 0
759 444 1 0 2.663037294983413 17.39592966435469 30.804688078794932 0 0 0
872 444 2 0 -0.2655675786685914 18.949893763792726 26.366204534459317 1 0 0
742 444 2 0 10.490859024712933 20.5364087484009 26.84959595596273 0 0 0
877 444 2 0 3.563240101285983 19.140258569585104 23.389607411659732 0 0 0
1986 444 1 0 10.36106997340737 22.061164661534033 33.679389892374836 0 0 0
754 444 2 0 5.736089601246714 19.03567844976325 32.3994492094546 0 0 0
1983 444 1 0 9.613088638950579 20.90668935517906 33.30978855182126 0 0 0
1909 444 2 0 10.10369858864344 9.075356568808122 23.995407478413277 0 0 0
755 444 1 0 4.2065434842629355 17.610174362771954 32.66800172212298 0 0 0
817 444 3 0 4.893878161452497 20.360327836825704 28.729240213562882 0 0 0
650 444 4 0 -0.841923240851563 14.77671887421776 30.280532467409415 1 0 0
815 444 3 0 6.711321964916818 21.661484353338583 26.749633692675797 0 0 0
816 444 3 0 8.278622918206112 21.259414741973007 28.218187723772274 0 0 0
1981 444 1 0 8.80382259497309 20.933883692600062 32.164069444603236 0 0 0
743 444 1 0 10.507969510455329 19.10353723930603 25.205359901073965 0 0 0
752 444 1 0 4.492105389576155 19.034104467699432 30.642410202517038 0 0 0
620 444 3 0 0.6012051131323788 16.150420493747042 31.00510938023404 0 0 0
749 444 2 0 6.6718672565942025 19.87836342861575 24.984776180257313 0 0 0
617 444 3 0 0.9167039590920887 16.031434604813374 27.840531800071375 0 0 0
747 444 1 0 8.3482105031928 18.681509305176952 24.186816753609115 0 0 0
762 444 1 0 1.3890333682748897 16.86589460656244 30.271534864683925 0 0 0
751 444 1 0 5.111157808664332 20.191670298426068 29.939918496309232 0 0 0
753 444 1 0 4.902144875279591 18.591629544442718 31.941380337152637 0 0 0
746 444 2 0 10.261177254271077 17.757022690695347 23.614543137499943 0 0 0
565 444 1 0 1.049962149878398 14.766021968190437 27.888914822885063 0 0 0
739 444 1 0 7.836672828177219 21.15582457874069 27.0297768350953 0 0 0
1978 444 5 0 8.695511661922293 22.103163807395877 31.479269185973024 0 0 0
758 444 2 0 2.6819698019870404 16.209589560940536 32.679549238259476 0 0 0
628 444 3 0 7.993618766202436 16.769025266902414 22.804338987821502 0 0 0
1979 444 2 0 8.231062487881124 20.045363782016516 31.892653876269485 0 0 0
741 444 1 0 9.921993150398803 20.034743889212816 26.060555940382308 0 0 0
575 444 2 0 2.5034460213772713 15.75086200661273 25.7887306442912 0 0 0
757 444 1 0 3.112937829219668 16.994010905070077 32.07821521019242 0 0 0
750 444 1 0 7.48496681469722 17.796571321193046 23.356371772736725 0 0 0
574 444 1 0 2.8749086182297994 14.781941978566778 26.14417831679542 0 0 0
576 444 1 0 4.697691551552458 14.92874660116396 24.460156551978653 0 0 0
627 444 3 0 6.2258026298315965 17.93710894512322 23.412518422545773 0 0 0
748 444 1 0 7.762366678715862 19.655469583957036 25.01556524864179 0 0 0
761 444 2 0 3.0541667323055677 18.668279446353917 29.08191730463736 0 0 0
760 444 1 0 3.3792777641984766 18.38424088826663 30.081969042331977 0 0 0
740 444 1 0 8.515998151728597 20.288408388080843 26.017328222532164 0 0 0
745 444 1 0 9.742631719111301 18.50018794220477 24.225566969872645 0 0 0
621 444 3 0 3.972243626835082 15.564490248203176 23.617090881942506 0 0 0
818 444 3 0 5.831060947029254 21.01255392891092 30.580524150255997 0 0 0
619 444 3 0 1.070346748982306 17.10937101654317 29.070021208923404 0 0 0
1104 444 2 0 10.636421006454984 2.685284671532225 26.763495097568605 0 0 0
857 444 4 0 5.088757609168715 22.24732252342347 28.0226812151889 0 0 0
175 444 3 0 1.0550936123086292 4.259488741008909 39.421563956657984 0 0 0
296 444 1 0 7.868541843306916 0.9185075787231096 41.675740706134626 0 0 0
304 444 1 0 7.191397318100698 1.882640176606285 42.44317285802969 0 0 0
305 444 2 0 6.135524716760344 1.9949300641575656 42.3147978569439 0 0 0
307 444 1 0 5.044239779577275 1.1932910910021852 38.59088931479382 0 0 0
308 444 1 0 4.745529088494337 2.5981390489061433 38.26116803035779 0 0 0
309 444 1 0 5.643884166298314 3.3817738395271033 37.48525491745999 0 0 0
310 444 2 0 6.6462920412677775 2.985446515723575 37.231069168647636 0 0 0
311 444 1 0 5.312014368704865 4.676275702055062 37.10469878991163 0 0 0
313 444 1 0 4.060527274277899 5.184502753184814 37.520827676353306 0 0 0
315 444 1 0 3.1223252938645403 4.4252863827786335 38.283028030330264 0 0 0
316 444 1 0 3.501288312016263 3.126134213470737 38.66186874328882 0 0 0
317 444 2 0 2.8609088792061477 2.5234514718043854 39.29488063799588 0 0 0
318 444 1 0 1.7986092593181318 4.94378071332293 38.65332024648302 0 0 0
373 444 3 0 4.664934312809022 0.7215035218625159 39.71614205318489 0 0 0
312 444 2 0 5.923675075365873 5.281755602977093 36.466179625024814 0 0 0
131 444 2 0 2.3810993766054507 6.204413044224118 42.809991818778464 0 0 0
303 444 1 0 7.894676302541917 2.673900031422777 43.34154844389829 0 0 0
176 444 3 0 1.3779575550441021 6.076708882157217 38.20683902551603 0 0 0
173 444 3 0 0.26684663606666814 6.504350666945543 41.24851051258213 0 0 0
301 444 1 0 9.250027401462084 2.4808217208766523 43.47818808297793 0 0 0
183 444 3 0 5.880812892943322 3.6411838264025875 44.17892891598105 0 0 0
374 444 3 0 5.767594883271167 0.44974597095840796 37.80059105563712 0 0 0
297 444 1 0 9.2687410507511 0.7567461601882637 41.82063660953859 0 0 0
306 444 1 0 7.181265863405377 3.6566260544590823 44.19776044275597 0 0 0
371 444 3 0 5.772381896873705 0.13616246054377368 40.8213053152926 0 0 0
295 444 1 0 7.058097417457995 0.04751745701995125 40.78221401324383 0 0 0
314 444 2 0 3.854179881559228 6.250535892221237 37.36860976808337 0 0 0
302 444 2 0 9.830868819802676 3.0180751175797877 44.22221748993141 0 0 0
299 444 1 0 9.955221956038883 1.5299163815022845 42.72528757669044 0 0 0
177 444 3 0 3.8819924620481125 6.2294945263325125 45.01528116256675 0 0 0
298 444 2 0 9.834705506231346 0.035859500756044715 41.236625311236715 0 0 0
184 444 3 0 7.766476073593472 4.4468035489196875 44.99954946396368 0 0 0
372 444 3 0 7.640978927537219 -0.7377211527760666 39.9461828929209 0 0 0
427 444 2 0 -0.41308608511607947 2.443755739803768 41.182429145928026 0 0 0
205 444 4 0 -0.68730015313666 4.9351842227784655 40.276516590153754 1 0 0
125 444 1 0 3.9962095737347245 9.480725181625987 41.508851596954855 0 0 0
433 444 2 0 2.3100707371176266 3.428994975780942 44.64026607099754 0 0 -1
2185 444 2 0 1.3106265860269324 9.855639789327928 34.31570462246578 0 0 0
178 444 3 0 5.854912731343477 6.887335095425465 44.266869296554425 0 0 0
2084 444 2 0 9.924278060187495 10.110198696615292 44.04879238393999 0 0 0
123 444 1 0 2.847189934576913 8.987027619058818 40.87541341660427 0 0 0
2077 444 2 0 8.093479027646357 8.50500208416736 43.94228300509218 0 0 -1
197 444 3 0 2.8711358064482786 3.287245519517866 45.435767858612394 0 0 0
126 444 2 0 4.498295904758905 10.326530837774701 41.05745505881362 0 0 0
2080 444 1 0 8.739562875588835 8.49917771140999 44.833685006256985 0 0 -1
2082 444 1 0 9.775140222439491 9.430966846924752 44.88768580568845 0 0 -1
132 444 1 0 4.580284543219275 6.9381218434480925 44.25004354473112 0 0 0
206 444 4 0 -0.5761504643945494 7.020232146507746 38.12484202265584 1 0 0
129 444 1 0 3.9297027078280347 7.663918026045479 43.15056850078536 0 0 0
121 444 1 0 1.1502249920591208 7.195165728289657 40.624757157751986 0 0 0
2186 444 1 0 -0.7604239511671242 10.411727907334944 34.744911698100594 1 0 0
130 444 1 0 2.791867385157823 7.161381790961354 42.502629222315086 0 0 0
2183 444 1 0 0.4401811682779362 9.694723581607093 34.976285934782545 0 0 0
2181 444 1 0 0.4671414012710218 8.748029787253216 35.994249804316176 0 0 0
122 444 1 0 2.2569545051898503 7.819896939548759 41.361034996030355 0 0 0
174 444 3 0 1.104644938298771 7.344317709984367 39.36499593144799 0 0 0
2178 444 5 0 -0.6361827132084514 8.507226154514496 36.79359989850034 1 0 0
128 444 2 0 5.400364008792069 9.203829722674396 43.09252631346339 0 0 0
2179 444 2 0 1.3540306028964895 8.166985144062131 36.20791995966513 0 0 0
127 444 1 0 4.511428624178176 8.836883901617917 42.63906399692883 0 0 0
124 444 2 0 2.550077699704493 9.422101808260459 39.96355275189442 0 0 0
207 444 4 0 4.633370918404713 4.441946373154959 45.664800947085496 0 0 -1
768 444 2 0 1.8216269824698221 25.513687831461585 10.207092027506986 0 0 0
370 444 3 0 4.645793438340359 36.940415376488204 0.8441590076528713 0 0 0
284 444 1 0 2.4385532366214817 36.45152940244255 1.7001977855905115 0 0 0
285 444 1 0 2.693728468612348 35.11898800389165 2.055154654606906 0 0 0
283 444 1 0 3.367251427065964 37.22496322827326 0.8189552421223898 0 0 0
286 444 2 0 3.536235024723004 34.60051895058914 1.6404911217114528 0 0 0
292 444 1 0 1.4343230515258427 37.111990303612906 2.30336813053618 0 0 0
287 444 1 0 1.8850407169410919 34.47427585721119 2.9626654426359194 0 0 0
288 444 2 0 2.080396530841995 33.43727238149372 3.2250058790487874 0 0 0
291 444 1 0 0.7002150892409871 36.49182837633308 3.3479523379746996 0 0 0
289 444 1 0 0.8883494355829749 35.16392258253959 3.6484486765130417 0 0 0
294 444 1 0 -0.20420597112830785 37.33754977188546 4.171260671214263 0 0 0
290 444 2 0 0.2833743917552458 34.62690911327914 4.338447786493299 0 0 0
2059 444 2 0 8.790310366973326 37.30195367973847 0.1207274588615943 0 0 1
269 444 2 0 5.293409385392318 41.47127390620232 3.045097373202492 0 0 0
259 444 1 0 5.840873318795177 39.110143625416654 1.792433945087145 0 0 0
2061 444 1 0 8.733504234475634 36.41417363655103 -0.48540933942634323 0 0 1
2220 444 1 0 -0.6080698226688245 36.55497619096189 9.411527528273698 0 0 0
1964 444 2 0 8.449734532453675 23.42087129301894 9.474054116387595 0 0 0
262 444 2 0 7.3640075441813 37.70057670253846 3.5667180135962524 0 0 0
412 444 4 0 6.058384689070177 37.448236803764964 -0.7574358520548479 0 0 1
411 444 4 0 4.203210104970372 39.67893961847944 -0.7473078850773084 0 0 1
2146 444 1 0 10.220189699878873 45.313786236256696 10.213057340426275 0 -1 0
2144 444 2 0 9.91934382759501 43.139152292334565 10.34132017187715 0 0 0
268 444 1 0 5.944723846245077 40.85460015214034 3.6119602394135497 0 0 0
1962 444 1 0 8.656770095891822 22.951443994717007 10.40144532169246 0 0 0
429 444 2 0 3.1895895142323583 45.1529720552342 2.5170636363596817 0 -1 0
379 444 3 0 -0.4666730662926595 40.97097656167858 6.558895252792912 0 0 0
325 444 1 0 3.487900958590339 42.22316333752381 9.34951836967087 0 0 0
381 444 3 0 -0.1670219193234913 38.5983152712196 4.133633339731608 0 0 0
328 444 1 0 2.136972313859079 41.9474888546811 7.355727818365136 0 0 0
363 444 3 0 5.234892401024954 39.95071815016256 1.0542372610430744 0 0 0
320 444 1 0 1.3499844167894532 40.96040345024909 8.00757211774391 0 0 0
399 444 3 0 5.064886906831353 43.2681568634427 4.859880159900442 0 0 0
435 444 2 0 0.022379108693229344 41.796893186991035 3.503853827215933 1 0 0
419 444 4 0 4.461594801332236 45.338527958277794 4.820486847136925 0 0 0
2137 444 2 0 8.057629812000357 43.1113707907167 8.749038336508974 0 0 0
322 444 2 0 1.0546177633168186 39.88672330857034 9.85391608417487 0 0 0
2138 444 5 0 8.064532917669602 45.23609120933512 8.444166048983014 0 0 0
2142 444 1 0 9.610974765964102 44.09262776636461 9.867308186240493 0 0 0
265 444 1 0 7.394170946129755 40.54519421584597 5.544440335299802 0 0 0
401 444 3 0 3.8138567364885856 43.72173812576036 6.03908735053218 0 0 0
263 444 1 0 7.715240524795982 39.23882510988993 5.064066738091379 0 0 0
2140 444 1 0 8.529327803545703 44.07102405305473 8.977118747671259 0 0 0
369 444 3 0 2.913676107359641 38.13823961113308 0.03351333750600416 0 0 0
330 444 1 0 3.979998980325919 43.6361801552299 7.313640623828956 0 0 0
266 444 2 0 7.829932602945494 40.87221957265998 6.456985997936513 0 0 0
323 444 1 0 2.7031460539242094 41.25163039415913 9.98052324465132 0 0 0
293 444 2 0 1.2566842493795405 38.162418393089574 2.059956737200683 0 0 0
326 444 2 0 4.398460276273061 42.6458924625449 9.862401470290244 0 0 0
270 444 1 0 6.123654662682597 42.702064366168756 5.315605130155429 0 0 0
364 444 3 0 5.993300252475612 37.91175945883225 1.3855440113713233 0 0 0
260 444 1 0 6.275950564894437 39.528944524669164 3.1358601051363686 0 0 0
261 444 1 0 7.12380806469271 38.721561369386706 3.9043285803286163 0 0 0
264 444 2 0 8.298859715295666 38.59075490870524 5.70075881238127 0 0 0
319 444 1 0 0.294301545212285 40.28447307099966 7.279453572639698 0 0 0
402 444 3 0 4.824403350412046 44.35700008913117 7.924793416465372 0 0 0
267 444 1 0 6.466528653392507 41.33583924398665 4.8547126085108 0 0 0
400 444 3 0 6.879630035480906 43.311829326542245 6.150049809797164 0 0 0
327 444 1 0 3.174365046444891 42.627822337053715 8.044766686534524 0 0 0
380 444 3 0 0.16286062915503097 39.022009687022084 7.261070113874039 0 0 0
321 444 1 0 1.659915166221038 40.61186455227097 9.307873421349855 0 0 0
420 444 4 0 6.588262950307973 45.18508379475613 7.083672954327403 0 0 0
329 444 2 0 1.8983635495383702 42.21538087587535 6.342919244855903 0 0 0
2217 444 2 0 0.02526906808494067 37.415101927134984 9.485650483305431 0 0 0
2063 444 1 0 9.794634437650618 35.57702085640633 -0.6840622258007668 0 0 1
2222 444 1 0 -0.4548897221160506 35.556278490979565 10.372615642523936 0 0 0
422 444 2 0 3.3044553032384463 42.11679403385066 0.24319796216178413 0 0 0
1968 444 2 0 10.555816584718816 24.268158888407086 8.736422615218151 0 0 0
404 444 3 0 3.2290180178309256 41.54737437950577 -0.5231899805315379 0 0 0
406 444 3 0 -0.9207557987037277 41.5905670219673 3.598796628670016 0 0 0
704 444 1 0 7.19955639080106 27.84076896676383 18.407103201161284 0 0 0
709 444 1 0 8.230712493803887 26.88383308852646 15.995130044822924 0 0 0
711 444 1 0 7.339013291992989 26.087456529025804 16.709351414642448 0 0 0
712 444 1 0 6.858480372212195 26.557332543569252 17.939329907713514 0 0 0
713 444 2 0 6.199083007676959 25.89045603214324 18.511722585257953 0 0 0
772 444 1 0 1.9513544342944082 25.519490951456916 14.058295099781148 0 0 0
773 444 2 0 1.9779415655737886 25.486788990902397 15.174501583172384 0 0 0
703 444 1 0 6.633703456756622 28.263671342596737 19.68421490566822 0 0 0
807 444 3 0 5.483152778601214 27.798349506497978 20.036656871843395 0 0 0
737 444 2 0 2.0032091632654048 29.123466739027563 18.76073419952408 0 0 0
813 444 3 0 4.193033084002165 28.870374874955306 20.221988838265673 0 0 0
764 444 1 0 1.043899208593659 26.3850272530985 13.389242299839688 0 0 0
707 444 1 0 8.642741467940828 28.098696213391207 16.52713324607803 0 0 0
705 444 1 0 8.111656159155865 28.60727359401025 17.704482597114257 0 0 0
808 444 3 0 7.215267308516994 29.127813578810706 20.413086820928736 0 0 0
710 444 2 0 8.694729215405696 26.517992287313465 15.080437381464005 0 0 0
706 444 2 0 8.370059421623475 29.605172002312102 18.0075654685115 0 0 0
708 444 2 0 9.432133315095227 28.67712811379905 16.0347073673844 0 0 0
714 444 1 0 6.9012339849168445 24.802716255055955 16.147018922181264 0 0 0
771 444 1 0 2.771359871612655 24.638597024578235 13.361133122936227 0 0 0
844 444 3 0 7.046482539835095 24.543492022059304 14.923694337497174 0 0 0