2544
 Atoms. Timestep: 0
1 50.0447 6.24338 4.08356
1 48.9014 6.88612 3.39964
1 48.259 7.98832 4.08891
2 48.571 8.27971 5.11638
1 47.201 8.673 3.39769
2 46.8392 9.68822 3.7563
1 46.8095 8.24664 2.15299
2 46.0008 8.76142 1.74257
1 47.2613 6.96888 1.63711
1 48.3788 6.36028 2.21803
2 48.8127 5.45761 1.7097
1 46.5341 6.30603 0.543773
1 50.0052 4.0222 6.52059
1 48.7518 3.43953 7.00493
1 48.0719 4.13968 8.03206
2 48.3566 5.09599 8.31642
1 46.8638 3.55895 8.51102
2 46.3098 4.14685 9.27122
1 46.3297 2.46248 7.91866
2 45.3484 2.16353 8.11787
1 47.0099 1.77412 6.92847
1 48.2078 2.23449 6.47019
2 48.6792 1.75377 5.6283
1 46.3524 0.577997 6.34904
1 0.624351 3.84462 6.58334
1 1.70094 3.0485 7.2712
1 2.11287 3.35654 8.5835
2 1.60414 4.08046 9.22772
1 3.20603 2.70778 9.1327
2 3.45446 2.91987 10.1576
1 3.82142 1.69981 8.41304
2 4.56748 1.0909 8.8806
1 3.32925 1.27804 7.14347
1 2.32699 2.09141 6.55061
2 1.99315 1.77796 5.51232
1 4.04565 0.141991 6.47983
1 0.528224 6.1959 4.17176
1 1.55978 6.96487 3.31646
1 1.6171 8.36656 3.3006
2 0.973391 8.92303 4.04445
1 2.61911 9.009 2.58141
2 2.77707 10.023 2.76503
1 3.38165 8.27526 1.6803
2 4.15431 8.76954 1.07059
1 3.09243 6.93282 1.46141
1 2.24861 6.22768 2.35097
2 2.16053 5.11315 2.3361
1 3.87679 6.25442 0.345382
1 43.9844 3.98836 50.2774
1 43.3523 3.47925 49.0937
1 42.2273 4.20925 48.5626
2 41.8883 5.07829 49.031
1 41.6406 3.79834 47.3427
2 40.8338 4.36925 46.9501
1 42.1613 2.68239 46.6876
2 41.5895 2.36717 45.9448
1 43.1921 1.90684 47.2546
1 43.7426 2.32321 48.4963
2 44.3995 1.64575 48.9994
1 43.6819 0.615076 46.6543
1 43.9529 4.05625 0.586579
1 43.1823 3.29048 1.64136
1 41.8967 3.66029 1.99934
2 41.4749 4.58834 1.55622
1 41.2295 2.95987 2.9209
2 40.2181 3.29635 3.1463
1 41.8005 1.83862 3.54415
2 41.2815 1.41222 4.40761
1 43.1379 1.50055 3.32073
1 43.7865 2.20064 2.33785
2 44.7678 1.85158 1.98537
1 43.862 0.400735 4.05828
1 46.4599 6.37121 50.3858
1 47.154 6.84727 49.1477
1 46.4625 7.79003 48.46
2 45.6051 8.17531 48.8336
1 46.8958 8.2789 47.2942
2 46.3342 9.09097 46.8408
1 48.0038 7.69895 46.6117
2 48.3469 8.15547 45.7181
1 48.7483 6.73798 47.28
1 48.2909 6.25845 48.5603
2 48.7695 5.42102 49.1312
1 49.8754 6.16458 46.642
1 43.8608 49.9318 4.20615
1 43.1387 48.7462 3.62424
1 41.8723 48.3539 4.11287
2 41.4017 48.9428 4.89631
1 41.1926 47.2415 3.50389
2 40.2858 46.704 3.95798
1 41.6802 46.6409 2.42848
2 41.3942 45.7107 2.12762
1 42.9773 47.0658 1.89469
1 43.6107 48.1442 2.49464
2 44.5869 48.4879 2.19851
1 43.539 46.3338 0.687472
1 46.1345 50.0109 6.79623
1 46.7212 48.7391 7.25377
1 45.9998 48.0146 8.19857
2 45.082 48.2888 8.68569
1 46.5138 46.7687 8.70645
2 45.8317 46.2212 9.31626
1 47.6738 46.2787 8.18413
2 47.8723 45.2078 8.35704
1 48.3761 46.9731 7.20062
1 47.9387 48.1652 6.75638
2 48.6305 48.6699 6.06724
1 49.6453 46.3764 6.64794
1 49.6409 3.89557 44.3351
1 48.3854 3.37641 43.7773
1 47.8642 3.91852 42.6353
2 48.2609 4.83373 42.2964
1 46.7582 3.38038 41.967
2 46.4537 3.70876 41.0011
1 46.0595 2.32203 42.6333
2 45.0997 2.04987 42.2424
1 46.5954 1.73675 43.7385
1 47.6688 2.3228 44.3316
2 48.0034 1.8661 45.213
1 45.9712 0.48272 44.311
1 0.523206 5.98436 46.6998
1 1.70586 6.61553 47.3371
1 2.3432 7.63616 46.6396
2 1.9268 8.01578 45.7015
1 3.47216 8.19601 47.2485
2 3.93305 8.99445 46.6254
1 3.94657 7.72609 48.4929
2 4.85433 8.17429 48.721
1 3.30775 6.71828 49.19
1 2.19453 6.13856 48.5794
2 1.68432 5.35799 49.1698
1 3.96548 6.0948 50.3435
1 6.29829 3.84585 0.705277
1 6.78301 3.39823 2.05405
1 7.47735 4.36 2.8488
2 7.71597 5.33925 2.54324
1 7.94449 3.95245 4.12176
2 8.43274 4.57857 4.84163
1 7.61993 2.66801 4.62331
2 7.85545 2.42073 5.676
1 6.88487 1.71629 3.79574
1 6.43209 2.11495 2.52167
2 5.82777 1.48414 1.86218
1 6.48948 0.351965 4.31281
3 50.7456 5.48074 3.42614
3 50.2217 6.43527 5.36659
3 50.7459 3.31713 5.81955
3 50.0908 5.26158 6.59403
3 0.466873 3.83083 5.32111
3 -0.291842 4.42095 7.23606
3 0.325354 4.93725 4.0639
3 -0.198536 6.87962 4.90259
3 44.8301 3.26811 50.8806
3 43.8439 5.12415 50.7038
3 45.186 3.88016 0.437188
3 43.3478 4.85345 -0.152808
3 46.5452 5.07224 0.406283
3 45.8561 7.08094 -0.250519
3 47.0421 5.4615 51.0417
3 45.2035 6.59751 50.5903
3 44.5478 50.7923 3.6063
3 43.6941 50.1295 5.50427
3 46.8516 50.7774 6.11769
3 44.8533 50.1048 6.59475
3 46.3466 0.410583 5.1153
3 45.6542 -0.174819 7.07519
3 45.1515 0.314034 4.13262
3 43.1257 -0.332874 4.74692
3 50.4037 3.1297 45.0142
3 49.9442 5.13651 44.2424
3 50.6675 5.43824 47.3124
3 50.0899 6.32409 45.3912
3 0.351495 4.71933 46.6538
3 -0.262077 6.69636 45.9953
3 0.261123 3.49088 45.6046
3 -0.552267 4.04956 43.6653
3 3.27215 5.32421 51.0638
3 5.22277 6.33297 50.5528
3 3.81955 4.96182 0.179604
3 4.71378 6.87464 -0.369824
3 5.03455 3.89054 0.525499
3 7.03493 4.55447 -0.0287336
3 6.20771 3.3149 51.1548
3 6.45764 5.30425 50.2851
3 45.9937 50.0126 45.776
3 45.2312 50.8025 43.7502
3 44.8387 50.0081 46.8295
3 42.808 50.7212 46.1553
3 44.3487 -0.257846 47.4157
3 43.5398 0.389248 45.3978
3 46.7052 -0.332902 44.9992
3 44.7224 0.39697 44.3337
3 51.8885 2.37249 3.05956
3 47.7965 2.42656 -1.38865
3 47.4409 51.4662 3.00146
3 51.5552 2.56909 47.9921
3 3.30138 2.33968 51.825
3 47.2374 -1.05921 47.9639
4 -1.37956 3.98459 4.27457
4 -1.39666 6.07615 6.52233
4 46.3889 3.96472 -1.42036
4 44.2014 6.5137 -1.24799
4 46.0729 -1.48874 4.49167
4 43.9526 -1.33542 6.37458
4 51.7826 3.89914 46.4693
4 -1.46359 5.94273 44.3267
4 4.42088 4.01705 -1.45928
4 6.43203 6.1002 -1.38241
4 45.798 -1.44785 46.548
4 43.6195 -1.45696 44.5157
1 0.0384844 44.1142 46.7118
1 0.966282 43.36 47.5423
1 0.841806 41.9334 47.4409
2 0.249258 41.4085 46.697
1 1.70148 41.1457 48.1801
2 1.7233 40.0563 48.1849
1 2.55236 41.7584 49.1325
2 3.25998 41.1412 49.7437
1 2.6024 43.1079 49.309
1 1.86749 43.9238 48.4575
2 1.82645 44.9509 48.5859
1 3.48458 43.7631 50.3571
1 0.101705 46.7776 44.5268
1 1.125 47.6506 43.9115
1 1.13879 47.755 42.4825
2 0.397695 47.2299 41.8275
1 2.1221 48.4398 41.7855
2 2.14862 48.3865 40.7167
1 3.1507 49.017 42.5019
2 3.88556 49.485 41.8264
1 3.10586 49.101 43.9294
1 2.16015 48.3003 44.6091
2 2.17646 48.1975 45.7332
1 4.00457 50.0536 44.6438
1 49.2952 46.2537 44.4709
1 48.0332 46.7516 43.9618
1 47.2824 46.1634 42.8541
2 47.5093 45.1625 42.4799
1 46.0717 46.7049 42.4915
2 45.4502 46.2339 41.7435
1 45.6423 47.9763 43.0016
2 44.6639 48.3767 42.6754
1 46.4046 48.6829 43.8956
1 47.6268 48.0919 44.2949
2 48.2315 48.5877 44.9698
1 45.9375 49.9658 44.4472
1 49.6983 44.0387 46.8783
1 48.5501 43.3656 47.4984
1 48.1594 42.0771 47.1508
2 48.6544 41.4967 46.3583
1 47.0872 41.4017 47.7889
2 46.921 40.4023 47.3949
1 46.3882 41.9945 48.8161
2 45.6161 41.4522 49.3161
1 46.8028 43.2539 49.3339
1 47.9195 43.9269 48.6657
2 48.2465 44.9503 48.9735
1 45.9836 43.8966 50.3704
1 6.21224 46.2009 0.46431
1 6.91895 46.7633 1.65563
1 8.00949 46.1013 2.29694
2 8.44282 45.2079 1.85117
1 8.63341 46.6316 3.44385
2 9.49535 46.1263 3.90615
1 8.06238 47.8129 4.02088
2 8.60283 48.3446 4.83834
1 6.91827 48.4011 3.4473
1 6.28551 47.8138 2.32639
2 5.34477 48.2556 1.91342
1 6.35425 49.5905 4.14193
1 6.12579 45.7497 49.9598
1 6.82685 46.4001 48.8432
1 8.00563 45.9188 48.3614
2 8.42215 45.135 48.9359
1 8.71178 46.5646 47.244
2 9.70025 46.2529 46.9373
1 8.13987 47.6646 46.6801
2 8.6239 48.0423 45.9142
1 6.92853 48.2019 47.1924
1 6.25668 47.5348 48.2339
2 5.31386 47.9969 48.6056
1 6.37364 49.527 46.5725
1 3.8779 44.0332 0.724497
1 3.25266 43.5635 2.01092
1 4.03837 43.0082 3.02113
2 5.06509 42.9759 2.81598
1 3.48583 42.6063 4.22241
2 4.19265 42.1608 5.00653
1 2.1355 42.7583 4.52457
2 1.70505 42.4631 5.50577
1 1.37665 43.4974 3.60433
1 1.85126 43.8017 2.32075
2 1.26501 44.2801 1.6206
1 0.081242 43.9873 4.0578
1 7.04685 0.420828 46.8212
1 7.57704 1.68787 47.3199
1 8.41841 2.46907 46.5656
2 8.78189 2.17168 45.6064
1 8.78876 3.74044 47.0555
2 9.57493 4.31196 46.5036
1 8.14879 4.26766 48.1834
2 8.37922 5.38411 48.4194
1 7.35061 3.46114 48.979
1 7.19507 2.08039 48.5981
2 6.63903 1.42778 49.2884
1 6.68246 4.03362 50.2302
1 3.95898 0.0461184 44.2992
1 3.01818 0.970077 43.6138
1 3.01415 0.88333 42.2019
2 3.65547 0.157092 41.6307
1 1.87794 1.41818 41.5165
2 1.75924 1.23588 40.4345
1 1.01215 2.22902 42.1678
2 0.249025 2.69644 41.573
1 1.11908 2.39359 43.5945
1 2.1305 1.74769 44.3157
2 2.18326 1.85926 45.3993
1 0.234529 3.37773 44.3514
1 0.10442 46.3165 6.39268
1 1.31366 46.8711 7.04862
1 1.52621 46.5491 8.37313
2 0.83038 46.0241 8.88486
1 2.56723 47.2364 9.11748
2 2.66675 47.057 10.1401
1 3.34565 48.1789 8.47885
2 4.10696 48.7015 9.07939
1 3.17769 48.5279 7.15429
1 2.18687 47.8568 6.42825
2 2.04523 48.0871 5.41042
1 3.91547 49.7162 6.54983
1 49.3198 44.2029 4.28866
1 48.0227 43.6156 3.67781
1 47.2568 42.7374 4.44299
2 47.5191 42.4186 5.4147
1 46.0772 42.1644 3.92978
2 45.4793 41.4166 4.51847
1 45.7075 42.6402 2.64009
2 44.7575 42.2283 2.26788
1 46.4735 43.4769 1.89551
1 47.6891 43.9124 2.3827
2 48.2437 44.6754 1.77009
1 45.8921 44.0807 0.694845
1 43.6134 46.2353 50.3122
1 42.871 46.9658 49.2041
1 41.6339 46.6226 48.8105
2 41.0591 46.0054 49.4706
1 40.9256 47.2666 47.8128
2 39.9339 46.8783 47.5902
1 41.5712 48.2443 47.0743
2 41.0874 48.6251 46.1799
1 42.8762 48.7395 47.4677
1 43.4553 48.1553 48.622
2 44.4223 48.4026 48.9071
1 43.5621 49.9314 46.8228
3 0.0543648 45.4351 46.7199
3 -0.61611 43.5227 45.815
3 0.0580183 46.6741 45.7991
3 -0.74111 46.0977 43.7703
3 50.061 47.1081 45.0379
3 49.6383 45.0057 44.4315
3 50.4025 44.8538 47.5151
3 49.871 43.8731 45.5881
3 5.36973 46.8684 -0.194297
3 6.37291 44.9307 0.265423
3 4.8659 45.969 50.1967
3 6.75387 45.1762 50.896
3 3.6576 45.0245 50.2495
3 4.19528 43.0724 51.1664
3 3.19202 44.616 -0.180019
3 5.12586 43.8511 0.498738
3 6.50806 -0.359389 47.5801
3 7.10622 0.156049 45.5803
3 3.94011 0.00780393 45.5905
3 4.86851 -0.643607 43.7205
3 3.95162 50.2226 45.963
3 4.84731 50.7679 44.0042
3 5.21734 50.0208 46.9577
3 7.10549 50.2456 45.7582
3 -0.00666078 46.4083 5.12617
3 -0.703548 45.5926 7.096
3 -0.0878178 45.238 3.9378
3 -0.658556 43.2349 4.73828
3 50.2233 44.6729 3.56349
3 49.6074 44.0087 5.5373
3 50.4758 47.038 5.87853
3 49.8185 45.1329 6.80125
3 46.6314 44.7132 -0.145727
3 44.6261 44.0421 0.549461
3 46.0394 45.136 50.5469
3 45.4321 43.1879 51.2535
3 44.841 46.4212 50.5144
3 43.0251 45.2088 50.9074
3 44.2206 47.0432 -0.164096
3 43.4599 45.0634 0.5549
3 3.41634 -0.731266 5.85899
3 5.33386 0.0654213 6.61824
3 5.94736 -0.463594 3.55729
3 6.40149 0.113721 5.61737
3 5.08431 49.7667 4.07905
3 7.00085 50.488 4.79359
3 3.97773 49.8436 5.26349
3 4.60232 50.4517 7.27281
3 51.0158 47.6191 47.9559
3 2.42429 47.2885 -1.15706
3 3.79874 -0.721131 48.6488
3 51.3578 47.8485 2.76217
3 47.2642 47.3794 -1.27386
3 2.92156 -0.756215 3.38868
4 51.451 46.2486 46.5166
4 51.6133 44.3524 44.3356
4 3.96413 45.942 52.1394
4 5.87119 43.7296 -1.46064
4 4.7581 -1.38765 46.9568
4 6.59441 -1.50854 44.5468
4 51.4975 46.2777 4.09592
4 51.5771 44.1091 6.33826
4 45.6232 46.1445 -1.27279
4 43.6815 44.0023 -1.33199
4 4.42949 51.7147 4.40092
4 6.25239 51.5741 6.47217
2 1.61692 47.15 51.8724
2 2.31143 47.854 -0.410868
2 47.5582 1.44047 52.0871
2 48.6538 2.66973 -1.06563
2 48.0022 51.7832 47.905
2 47.0096 -0.626207 48.8444
2 51.8865 1.65966 47.8743
2 51.4299 2.81993 48.8746
2 2.478 -1.18804 2.66593
2 3.44111 0.0530886 3.19934
2 -0.827164 1.67302 2.88583
2 51.2457 2.54803 2.40245
2 3.41466 1.47708 -1.44774
2 2.52026 2.65967 51.3335
2 -1.44705 48.5765 2.59265
2 50.5645 47.9191 2.17408
2 47.3536 51.1604 2.07302
2 48.1692 51.7443 3.52446
2 47.4164 48.0598 -0.539763
2 47.791 47.3062 51.586
2 4.37213 -0.742661 49.4226
2 2.92963 -0.300502 48.7384
2 51.6736 47.5838 48.6353
2 50.1215 47.7495 48.1843
1 50.189 16.89 19.6008
1 49.0113 16.3042 20.18
1 48.0884 15.5157 19.3921
2 48.3838 15.3073 18.4334
1 46.9132 14.9584 20.0295
2 46.2847 14.2425 19.4572
1 46.6174 15.2288 21.3104
2 45.728 14.801 21.6512
1 47.3712 16.2271 21.9817
1 48.6249 16.5928 21.4957
2 49.3417 17.0336 22.1032
1 46.8811 16.7183 23.2742
1 49.9467 19.4418 17.528
1 48.7037 20.0622 16.9486
1 48.0545 19.3682 15.9562
2 48.5412 18.5254 15.4777
1 46.888 19.8951 15.3697
2 46.4516 19.4207 14.5133
1 46.2596 21.0275 15.9143
2 45.3558 21.4726 15.5298
1 46.8936 21.7447 16.9219
1 48.1091 21.2783 17.4626
2 48.4564 21.7384 18.3489
1 46.2315 22.9754 17.5233
1 0.49652 19.9002 17.5108
1 1.54748 20.6941 16.761
1 1.65377 20.643 15.3581
2 0.923468 19.9908 14.7003
1 2.55898 21.4009 14.6573
2 2.83198 21.1709 13.6328
1 3.35733 22.344 15.3699
2 4.13979 22.8701 14.8027
1 3.18829 22.5588 16.7356
1 2.2367 21.7437 17.4049
2 1.91383 22.0559 18.4043
1 3.9828 23.5949 17.4732
1 0.727193 17.4376 19.7908
1 1.94101 16.7939 20.4236
1 2.70284 15.9381 19.6711
2 2.4609 15.762 18.6582
1 3.71306 15.1759 20.1858
2 4.27952 14.4727 19.5219
1 4.17614 15.4584 21.479
2 5.01401 14.9062 21.8265
1 3.57627 16.5157 22.2697
1 2.44217 17.1556 21.7223
2 1.76625 17.8294 22.3699
1 4.12704 17.0947 23.4649
1 44.5299 19.5991 26.974
1 43.7613 20.458 27.9496
1 42.3821 20.32 28.0327
2 41.8476 19.6808 27.3556
1 41.6263 21.0401 28.9861
2 40.6042 20.7886 29.1467
1 42.252 21.9663 29.8086
2 41.6763 22.501 30.5372
1 43.6641 22.108 29.7248
1 44.3811 21.3412 28.7951
2 45.4276 21.5487 28.5873
1 44.3787 23.0321 30.6451
1 44.428 20.0317 23.6766
1 43.6498 20.9913 22.8512
1 42.2743 21.0799 22.9895
2 41.732 20.5005 23.7582
1 41.5463 21.9179 22.0582
2 40.4613 22.0579 22.2212
1 42.1693 22.7833 21.2061
2 41.5468 23.5774 20.7754
1 43.5623 22.7184 21.0049
1 44.3231 21.8164 21.8409
2 45.3959 21.7856 21.6041
1 44.2453 23.5175 19.9697
1 46.686 17.066 27.3898
1 47.4041 16.3618 28.4268
1 47.354 14.9561 28.5345
2 46.7735 14.3401 27.9116
1 48.2075 14.3573 29.4636
2 48.2276 13.2157 29.7205
1 49.1161 15.1181 30.2022
2 49.7332 14.569 30.9253
1 49.3083 16.4813 29.96
1 48.4293 17.0965 29.0885
2 48.5855 18.1223 28.9812
1 50.3291 17.2158 30.7214
1 43.9281 26.8203 20.1053
1 43.1878 27.7301 20.9574
1 41.7934 27.8348 20.8784
2 41.2109 27.3847 20.0756
1 41.1025 28.7459 21.6824
2 40.1151 29.0223 21.4642
1 41.7966 29.6894 22.5143
2 41.1816 30.3946 23.1042
1 43.2461 29.5821 22.6057
1 43.876 28.5815 21.8279
2 44.9841 28.6283 21.7903
1 43.9205 30.3711 23.6522
1 46.4885 27.107 17.2375
1 47.0543 28.3652 16.7765
1 46.2969 29.0492 15.778
2 45.2672 28.7632 15.5571
1 46.722 30.2448 15.3795
2 46.1474 30.829 14.7896
1 47.8503 30.8483 15.9325
2 48.02 31.8852 15.7653
1 48.6089 30.183 16.85
1 48.2674 28.9031 17.2712
2 48.7629 28.4878 18.161
1 49.8516 30.7102 17.5028
1 50.2541 19.509 33.1558
1 49.0723 20.2243 33.8719
1 48.6762 19.8487 35.1476
2 49.1915 19.0819 35.7076
1 47.5576 20.3698 35.8169
2 47.484 20.2341 36.9055
1 46.7598 21.3041 35.2023
2 45.8992 21.7697 35.7601
1 47.1066 21.7539 33.8562
1 48.2509 21.1596 33.2234
2 48.4439 21.4896 32.1808
1 46.501 22.902 33.266
1 0.967773 17.0926 31.2153
1 2.23468 16.6257 30.6056
1 2.96506 15.5498 31.2102
2 2.58855 14.9042 32.048
1 4.14013 15.1849 30.619
2 4.79937 14.3946 31.0587
1 4.68279 15.7683 29.4588
2 5.64703 15.517 29.0992
1 3.99066 16.8459 28.8799
1 2.83298 17.3054 29.4223
2 2.32431 18.1468 28.9058
1 4.48774 17.3849 27.6715
1 6.24512 19.5154 23.2804
1 6.71908 20.004 21.9615
1 7.76381 19.4031 21.2382
2 8.08863 18.4314 21.3967
1 8.30741 20.0095 20.0683
2 9.20134 19.6351 19.596
1 7.72224 21.1951 19.5386
2 8.11876 21.7916 18.721
1 6.72905 21.8982 20.3205
1 6.23884 21.2463 21.5357
2 5.36689 21.6936 21.9571
1 6.18503 23.1365 19.8259
3 51.0626 17.3824 20.3828
3 50.3163 17.0087 18.3453
3 50.6252 19.9903 18.49
3 50.1374 18.232 17.3596
3 0.420604 19.8213 18.7716
3 -0.352285 19.2575 16.8047
3 0.656002 18.6898 19.901
3 -0.040794 16.7112 19.1018
3 45.7812 19.3886 27.0649
3 43.9141 19.072 26.0043
3 45.6473 20.2138 23.7614
3 43.8377 19.2231 24.4959
3 47.609 17.5136 24.0033
3 45.6476 16.6391 23.5084
3 46.9873 18.2655 27.0745
3 45.6871 16.5416 26.8075
3 45.1968 26.6098 20.2936
3 43.3475 26.1587 19.1393
3 47.2619 26.2358 17.8085
3 45.1738 27.038 17.2468
3 46.4347 23.2898 18.7331
3 45.5296 23.7292 16.8199
3 45.5274 23.5525 19.8735
3 43.4966 24.3102 19.2623
3 50.3464 19.6231 31.8857
3 51.0199 18.7212 33.792
3 50.3599 18.4775 30.7174
3 51.1902 16.51 31.3596
3 0.106599 17.7371 30.5742
3 0.716689 16.9496 32.468
3 0.0249975 20.39 32.4097
3 0.253712 18.5087 33.6047
3 4.19812 18.5461 27.367
3 5.07129 16.6307 26.8541
3 3.41222 17.8967 24.2879
3 5.39099 16.9524 23.681
3 5.62951 20.2813 24.1682
3 6.51388 18.3261 23.5706
3 5.18339 19.8665 27.1935
3 7.04722 19.0281 26.5715
3 47.034 26.3319 32.8026
3 44.9161 26.8634 33.3019
3 45.1016 26.2166 30.1672
3 43.2659 25.5309 31.141
3 45.6761 23.1039 30.7895
3 43.6009 23.7916 31.4019
3 46.8529 23.2594 32.0637
3 45.4996 23.4841 33.8028
3 51.5944 20.2847 21.5568
3 48.4491 20.4424 25.0519
3 48.1492 25.3101 20.5158
3 -0.759503 20.5985 29.2736
3 2.47584 20.311 25.197
3 48.0503 25.5666 29.7981
4 -1.32077 19.2094 19.8476
4 -1.25805 17.4981 17.4268
4 46.9087 19.186 25.1799
4 44.5651 17.2347 25.0622
4 46.497 25.305 19.4501
4 44.1961 25.1853 17.4403
4 -1.14745 19.3558 30.9261
4 -1.2079 17.0305 33.1168
4 4.29389 19.3613 25.3705
4 6.39822 17.2911 25.4442
4 46.5408 25.1336 31.1341
4 44.1637 24.9689 33.0215
1 -0.0275178 33.1473 30.848
1 1.04127 33.8737 30.0863
1 1.11108 35.2713 30.2099
2 0.518711 35.9054 30.8207
1 2.1503 35.9224 29.4725
2 2.07232 37.004 29.3819
1 2.93004 35.2427 28.5175
2 3.59597 35.7818 27.9102
1 2.7253 33.893 28.2287
1 1.76564 33.2326 29.0566
2 1.5549 32.1484 28.8701
1 3.5659 33.1918 27.1217
1 0.301752 30.809 33.2951
1 1.49298 30.1456 33.9743
1 2.12891 30.7652 35.1147
2 1.63289 31.6523 35.4726
1 3.29296 30.1859 35.6477
2 3.73498 30.6648 36.5077
1 3.80154 28.9659 35.1283
2 4.71288 28.5272 35.612
1 3.15549 28.3589 34.0661
1 2.09511 29.026 33.4968
2 1.54862 28.5965 32.6548
1 3.82125 27.2165 33.4148
1 49.5113 30.7758 33.4624
1 48.2335 30.2555 33.9278
1 47.2393 31.1165 34.494
2 47.4459 32.1946 34.7907
1 46.0404 30.5431 34.8582
2 45.2589 31.1858 35.2993
1 45.7331 29.2728 34.5177
2 44.6589 28.9123 34.6808
1 46.6253 28.3751 33.8726
1 47.9613 28.8797 33.5962
2 48.8164 28.2344 33.144
1 46.1462 27.1236 33.3264
1 49.6525 32.9612 31.078
1 48.4512 33.5726 30.4814
1 47.7483 34.5421 31.1519
2 48.1922 34.955 32.093
1 46.5723 34.9843 30.6176
2 46.0802 35.7445 31.2076
1 46.1298 34.5857 29.3399
2 45.1251 34.9721 29.0268
1 46.7916 33.5937 28.6219
1 48.0168 33.0866 29.2278
2 48.4346 32.1799 28.7677
1 46.2379 33.0491 27.3373
1 6.63587 31.0678 23.357
1 7.29995 30.4325 22.2152
1 8.25266 31.153 21.5057
2 8.64151 32.1073 21.8743
1 8.77347 30.5848 20.3443
2 9.63481 31.0315 19.8677
1 8.1985 29.4118 19.7426
2 8.39757 29.2791 18.714
1 7.37816 28.5683 20.5204
1 6.90047 29.1089 21.7484
2 6.26831 28.5778 22.3145
1 6.766 27.3363 19.962
1 5.91204 30.9699 27.5339
1 6.47622 30.3011 28.6868
1 7.66049 30.9068 29.1684
2 7.99189 31.8226 28.7149
1 8.34138 30.2584 30.2382
2 9.36701 30.5807 30.5813
1 7.83396 29.0744 30.7266
2 8.38493 28.5211 31.4308
1 6.65176 28.5081 30.2632
1 5.91871 29.1899 29.3237
2 4.99036 28.7359 28.93
1 6.0832 27.2852 30.9524
1 4.14575 33.2251 23.1452
1 3.53621 33.8057 21.9517
1 4.09851 34.9239 21.3118
2 4.90268 35.4309 21.7874
1 3.59854 35.4267 20.0895
2 4.12902 36.2113 19.5682
1 2.58914 34.7556 19.4631
2 2.07102 35.1699 18.6171
1 1.92641 33.7326 20.1323
1 2.37383 33.2103 21.3679
2 1.94896 32.3936 21.8094
1 0.638959 33.0947 19.5597
1 6.36929 23.2399 30.9271
1 7.12294 22.2607 30.1866
1 8.50788 22.0578 30.4321
2 9.00553 22.6602 31.2163
1 9.20932 21.1271 29.6581
2 10.2204 20.9829 29.8878
1 8.56335 20.2884 28.6824
2 9.07471 19.6161 27.9674
1 7.161 20.4751 28.4879
1 6.48409 21.3734 29.2303
2 5.50822 21.6208 28.9194
1 6.49257 19.7836 27.3608
1 4.09194 23.2215 33.4717
1 3.55956 21.9465 34.032
1 4.31347 21.1392 34.8982
2 5.22876 21.4915 35.2215
1 3.84445 19.9001 35.3084
2 4.49074 19.2391 35.9315
1 2.59057 19.5036 34.8863
2 2.23799 18.5424 35.1571
1 1.82046 20.2706 33.9771
1 2.41815 21.4935 33.4996
2 1.82694 22.037 32.7777
1 0.65102 19.6884 33.2782
1 -0.460945 29.7237 17.1432
1 0.501179 28.7104 16.4818
1 0.321986 28.2797 15.1579
2 -0.480039 28.8522 14.6114
1 1.17742 27.351 14.6682
2 1.10649 27.0918 13.5768
1 2.31195 26.903 15.3012
2 2.89063 26.1646 14.7884
1 2.51318 27.2624 16.635
1 1.62221 28.2167 17.1684
2 1.88282 28.5603 18.1233
1 3.56351 26.5848 17.4207
1 49.8906 32.842 19.7141
1 48.5534 33.4077 20.2036
1 48.1251 34.6354 19.8142
2 48.6473 35.2806 19.0534
1 47.0103 35.221 20.4128
2 46.7004 36.163 19.9957
1 46.251 34.5675 21.3884
2 45.4244 35.1665 21.8134
1 46.7927 33.3784 21.8751
1 47.9528 32.7936 21.3148
2 48.2981 31.9597 21.763
1 46.1282 32.7093 23.1221
1 43.8734 29.7776 26.72
1 43.1105 28.7382 27.5549
1 41.7033 28.8855 27.6602
2 41.2059 29.6471 27.1532
1 40.9905 28.0631 28.5018
2 39.9564 28.3617 28.6448
1 41.6477 27.0538 29.2752
2 41.072 26.5326 30.0334
1 43.0275 26.9495 29.2172
1 43.743 27.7683 28.3274
2 44.8123 27.6103 28.2125
1 43.8293 26.151 30.1862
3 -0.0355484 31.8641 30.8468
3 -0.73803 33.7572 31.7672
3 0.189446 30.7793 32.015
3 -0.631145 31.2733 33.9975
3 50.4286 30.0589 32.9476
3 49.7182 32.0756 33.5281
3 50.4246 32.159 30.4204
3 49.85 33.1048 32.2832
3 5.94131 30.3472 24.1946
3 6.69246 32.3506 23.5383
3 4.63525 30.8091 27.2866
3 6.7456 31.6097 26.8083
3 3.62245 31.8908 27.0701
3 4.31384 33.8741 26.3702
3 3.43421 32.5096 23.938
3 5.39826 33.3568 23.3863
3 5.51774 24.0173 30.3474
3 6.67322 23.4049 32.1622
3 3.30038 23.9735 32.7962
3 5.37267 23.3837 33.5027
3 3.45921 26.8896 32.2415
3 4.79071 26.5709 33.9433
3 4.77454 27.1603 31.1098
3 6.87147 26.4503 31.4987
3 -1.18756 29.369 18.1429
3 -0.154737 30.9249 16.9415
3 0.372385 31.8683 19.8176
3 -0.0792407 33.7801 18.7728
3 50.511 32.0425 20.4286
3 50.3257 33.1668 18.516
3 50.4895 29.9992 18.3754
3 50.2291 31.8552 17.223
3 46.3941 31.5147 23.4491
3 45.3978 33.4456 23.8245
3 47.0608 32.44 26.5644
3 45.0045 33.0644 27.153
3 45.1542 29.6102 26.5227
3 43.2474 30.8026 26.2448
3 45.1766 30.2724 23.7557
3 43.2474 31.2151 24.3428
3 3.9314 23.7613 18.6942
3 4.7843 24.3305 16.8205
3 4.94396 23.5416 20.0899
3 6.93175 23.9077 19.1202
3 6.0746 26.5097 20.6485
3 6.93207 27.1475 18.7244
3 3.50289 26.5956 18.6637
3 4.54037 26.0036 16.8728
3 51.1811 29.1244 30.1687
3 2.95318 29.6483 24.4845
3 2.60824 24.9022 29.7417
3 -0.532361 29.7783 21.4264
3 48.2773 29.7181 25.4637
3 3.09249 25.5921 21.6989
4 51.6243 30.8303 31.3512
4 51.6213 32.8761 33.3411
4 4.2043 31.1208 25.1612
4 6.18437 33.2169 25.4543
4 3.98729 25.1753 31.2287
4 6.30729 25.2992 33.1695
4 -1.42204 30.7211 19.7804
4 -1.30699 32.735 17.4373
4 46.5104 30.8092 25.4499
4 43.9713 32.7423 25.411
4 4.48481 25.4511 20.0262
4 6.38293 25.3824 17.7284
2 2.4162 29.2046 25.086
2 2.69698 29.5181 23.5564
2 49.0636 20.4848 24.2935
2 48.6115 20.9321 25.8659
2 48.8072 26.0263 30.0412
2 47.9301 25.3318 28.883
2 -1.06739 20.1794 28.5061
2 -0.418391 21.526 29.2546
2 2.81775 26.3833 22.23
2 2.83287 24.702 22.0003
2 51.3538 21.2339 21.6005
2 51.2307 19.793 22.3409
2 2.35911 21.2912 25.2732
2 1.77976 19.7728 24.8033
2 0.114263 29.0938 21.2903
2 -0.677877 30.1811 22.3462
2 48.8241 25.9587 20.1973
2 48.0017 24.9411 21.4095
2 49.1673 30.1828 25.4192
2 48.225 28.7685 25.5657
2 2.96161 24.7376 28.8789
2 1.73063 25.3087 29.8106
2 50.4384 28.9637 29.5388
2 51.8443 28.4366 30.0501
1 32.7821 50.1363 20.0501
1 33.4925 48.9778 20.8203
1 34.7967 48.4994 20.4474
2 35.1691 48.7623 19.5347
1 35.3825 47.3808 21.1327
2 36.1669 46.9475 20.7532
1 34.6605 46.7781 22.1913
2 35.2093 45.9131 22.6539
1 33.4677 47.3144 22.6693
1 32.8919 48.4391 21.9666
2 31.9981 48.8548 22.4587
1 32.7605 46.5309 23.7613
1 30.7494 49.8379 17.4311
1 30.0699 48.6931 16.8215
1 30.6689 48.23 15.6344
2 31.5317 48.7995 15.2409
1 29.9727 47.2759 14.8402
2 30.2508 47.0883 13.8379
1 28.7761 46.7185 15.3122
2 28.2782 45.9675 14.7269
1 28.3807 46.9963 16.64
1 29.0394 47.9638 17.3509
2 28.6123 48.2741 18.317
1 27.1968 46.3097 17.2704
1 30.7018 0.705487 17.1548
1 30.1421 1.92727 16.6359
1 30.7059 2.55559 15.5015
2 31.4265 2.07495 14.8332
1 30.343 3.90754 15.1051
2 30.9233 4.38699 14.3469
1 29.2487 4.52637 15.7042
2 28.8825 5.45736 15.3004
1 28.511 3.79016 16.651
1 28.9986 2.57504 17.1897
2 28.4149 2.05722 18.0034
1 27.3095 4.42516 17.1355
1 33.5594 -0.190433 20.4085
1 34.3692 0.647017 21.39
1 35.8253 0.681692 21.3113
2 36.3661 0.0572576 20.5892
1 36.5838 1.38244 22.2181
2 37.6573 1.30611 22.2584
1 35.8975 2.22073 23.2003
2 36.4299 2.77736 23.9466
1 34.4855 2.25637 23.2098
1 33.7685 1.49273 22.3115
2 32.7255 1.43317 22.5266
1 33.7695 3.31243 24.0029
1 30.5194 43.6346 27.3535
1 29.9589 43.0695 28.5901
1 30.6776 42.2241 29.4409
2 31.5846 41.8109 29.0245
1 30.1496 41.9278 30.6794
2 30.6305 41.2803 31.3161
1 28.8279 42.3177 31.0313
2 28.4462 42.1233 32.0162
1 28.1217 43.1945 30.2092
1 28.7003 43.6236 29.02
2 28.1929 44.3296 28.3525
1 26.9262 43.8798 30.749
1 30.5058 44.0247 23.2383
1 29.8903 43.3831 22.0588
1 30.4105 42.1676 21.4784
2 31.2871 41.6279 21.7778
1 29.7462 41.58 20.4359
2 30.0895 40.6246 19.9974
1 28.5778 42.1331 19.9956
2 27.9607 41.6624 19.1804
1 28.1211 43.3755 20.3966
1 28.8045 44.0086 21.4674
2 28.3912 44.9409 21.8611
1 26.97 44.0884 19.6904
1 32.975 46.7722 26.8219
1 33.6826 47.7577 27.6851
1 35.0274 47.976 27.4832
2 35.6501 47.4358 26.7462
1 35.7911 48.9625 28.2564
2 36.8443 49.1941 28.1161
1 35.0889 49.6322 29.2524
2 35.6342 50.3438 29.8074
1 33.7059 49.4417 29.4126
1 32.9728 48.4497 28.6676
2 31.9328 48.2573 28.722
1 32.9479 50.3061 30.4063
1 22.8551 44.2488 19.4822
1 21.7037 43.723 20.1313
1 20.9605 42.7514 19.3835
2 21.153 42.406 18.4263
1 19.8171 42.158 20.0079
2 19.0343 41.6253 19.318
1 19.3311 42.71 21.2094
2 18.2837 42.5789 21.4003
1 20.0386 43.6821 21.9218
1 21.2246 44.1718 21.4038
2 21.7126 44.944 21.9388
1 19.3822 44.337 23.0783
1 23.3316 46.8621 17.371
1 22.2769 47.6826 16.6362
1 21.7075 47.2315 15.4114
2 21.9418 46.2834 14.9033
1 20.5747 47.8542 14.8587
2 20.1401 47.4254 13.9948
1 19.9823 48.8909 15.5466
2 19.0341 49.2614 15.1949
1 20.5087 49.3695 16.7594
1 21.5707 48.6628 17.3773
2 21.8645 48.8346 18.3761
1 19.9121 50.4493 17.4883
1 30.5773 49.4484 33.4712
1 29.9747 48.1616 33.9325
1 30.6574 47.3608 34.8692
2 31.536 47.8081 35.2658
1 30.2023 46.0915 35.2885
2 30.7246 45.3704 35.9222
1 28.9801 45.6408 34.7907
2 28.5662 44.6358 34.9671
1 28.3022 46.4535 33.8218
1 28.7502 47.7655 33.5084
2 28.1037 48.4399 32.8863
1 27.0684 46.0403 33.2014
1 32.7802 0.0309794 30.8298
1 33.5918 0.890161 29.9019
1 35.0167 0.96119 30.0159
2 35.5705 0.306878 30.6788
1 35.8306 1.76148 29.153
2 36.9274 1.75084 29.2233
1 35.2332 2.58814 28.2253
2 35.8539 3.07299 27.4827
1 33.7679 2.65982 28.1322
1 32.9899 1.85325 29.0479
2 31.937 1.93074 28.9888
1 33.1225 3.48338 27.0962
1 31.0412 6.38353 23.1762
1 30.4853 7.06451 21.9489
1 31.307 7.98999 21.2293
2 32.2296 8.36283 21.6306
1 30.8334 8.47297 20.0279
2 31.4808 9.243 19.56
1 29.5344 8.12986 19.5903
2 29.1375 8.67643 18.7572
1 28.7413 7.17583 20.2646
1 29.2534 6.63053 21.4642
2 28.7639 5.67594 21.7586
1 27.5225 6.61082 19.6771
3 31.5202 50.2708 20.0786
3 33.4586 50.8751 19.2283
3 30.3657 50.0748 18.629
3 31.7346 50.4813 16.8642
3 29.9837 -0.16041 17.6416
3 32.0244 0.534028 17.1793
3 32.276 -0.176702 20.4908
3 34.1081 -0.824931 19.3849
3 29.8129 44.4355 26.6266
3 31.7797 43.6263 27.196
3 30.1527 45.2357 23.5419
3 31.5091 43.4873 23.8793
3 31.4614 46.5111 23.7409
3 33.413 45.7522 24.5658
3 31.7474 46.9406 26.6602
3 33.6491 46.0056 26.099
3 23.7151 44.7853 20.2232
3 22.98 44.2879 18.1926
3 24.2195 47.4394 18.0521
3 23.3596 45.6189 17.2235
3 27.0233 46.3894 18.5225
3 26.3345 45.6264 16.5646
3 26.9256 45.3357 19.6196
3 26.1181 43.3983 19.0444
3 29.8286 50.4344 33.0317
3 31.8176 49.5695 33.4805
3 31.6804 50.4628 30.1896
3 33.4546 50.7585 31.4783
3 31.4824 -0.0149933 30.6871
3 33.3988 -0.730549 31.6462
3 30.2421 0.0985156 32.1281
3 31.4987 -0.392031 33.8669
3 31.8083 3.44896 26.8377
3 33.8852 4.35497 26.4381
3 32.476 3.2897 23.973
3 34.3583 4.13224 24.7647
3 30.2689 5.93963 24.0805
3 32.2656 6.19941 23.3871
3 30.7988 4.81675 27.0571
3 32.0934 6.61521 26.8833
3 22.9508 46.4403 31.6762
3 23.6186 45.904 33.6545
3 23.1505 45.3486 30.3677
3 23.4004 43.4759 31.5444
3 26.3533 44.7896 30.0477
3 26.523 43.7052 31.9719
3 26.1443 46.7939 32.8168
3 26.8518 44.7657 33.137
3 29.1797 -0.316478 19.8384
3 28.7012 47.3329 25.8809
3 25.0467 47.4156 21.2166
3 28.671 51.2449 29.9943
3 29.1662 3.38832 24.5505
3 25.3576 47.9662 30.1269
4 30.8723 -1.25151 19.1713
4 33.1245 -1.24783 17.4788
4 30.2882 46.1089 25.4631
4 32.8303 44.0005 25.487
4 25.0924 46.3179 19.5552
4 25.0073 44.1662 17.455
4 30.371 51.5746 31.2901
4 32.6522 51.5717 33.3149
4 30.9271 4.29191 25.1319
4 33.3204 6.01313 25.2151
4 25.0319 46.1687 31.071
4 24.7321 44.1799 33.1089
1 17.3347 0.615614 30.5946
1 16.6198 1.62195 29.669
1 15.1817 1.79223 29.6755
2 14.6044 1.11288 30.2281
1 14.5341 2.7168 28.8608
2 13.4831 2.79765 28.7683
1 15.3308 3.5438 27.9913
2 14.7752 4.18715 27.2872
1 16.7325 3.46764 27.9975
1 17.3544 2.47809 28.8357
2 18.4545 2.49096 28.8751
1 17.5643 4.37697 27.0637
1 19.6762 0.966565 32.9612
1 20.321 2.09518 33.7918
1 19.8242 2.4553 35.1187
2 18.9725 1.9813 35.4875
1 20.473 3.50006 35.8379
2 20.1458 3.74184 36.8056
1 21.5781 4.04986 35.2809
2 22.1517 4.84421 35.8497
1 21.9597 3.79786 33.9318
1 21.2695 2.82452 33.1734
2 21.6478 2.64567 32.192
1 23.2199 4.43177 33.3605
1 19.3015 49.9934 33.2048
1 19.7736 48.6324 33.6589
1 19.0839 47.8427 34.5631
2 18.231 48.3639 35.0345
1 19.6788 46.634 35.0305
2 19.211 46.1207 35.8609
1 20.7543 46.1138 34.3381
2 21.1757 45.0896 34.6657
1 21.5256 46.8849 33.4709
1 20.9698 48.1423 33.0465
2 21.5502 48.7291 32.2885
1 22.767 46.3943 32.9013
1 17.2714 50.3003 30.6881
1 16.5836 49.2292 29.9174
1 15.2086 49.1705 30.1132
2 14.696 49.7571 30.7631
1 14.5592 48.1822 29.4329
2 13.4794 48.0024 29.6263
1 15.1869 47.3205 28.498
2 14.6431 46.4539 28.0888
1 16.468 47.5068 28.1847
1 17.217 48.4933 28.9042
2 18.1917 48.6096 28.6505
1 17.1071 46.774 27.0458
1 20.2184 6.90548 23.4505
1 21.0007 7.5712 22.4056
1 20.8989 8.943 22.3268
2 20.2443 9.4947 22.9288
1 21.6265 9.61822 21.2885
2 21.3943 10.7605 21.1263
1 22.3231 8.93262 20.3514
2 22.7555 9.44214 19.4842
1 22.5386 7.5349 20.477
1 21.9165 6.8977 21.5836
2 22.0651 5.83004 21.7547