LAMMPS data file via write_data, version 7 Feb 2024, timestep = 3765719, units = real

2544 atoms
6 atom types
2976 bonds
12 bond types
5712 angles
23 angle types
5952 dihedrals
5 dihedral types
3600 impropers
1 improper types

-1.5000000000000002 51.904929000000024 xlo xhi
-1.5000000000000002 51.88369900000002 ylo yhi
-1.5000000000000002 52.16010900000002 zlo zhi
-0.054235 0.003807 -0.057864 xy xz yz

Masses

1 12.0107
2 1.00794
3 15.9994
4 65.38
5 14.0067
6 12.0107

Pair Coeffs # lj/cut

1 0.105 3.43085
2 0.044 2.57113
3 0.06 3.11815
4 0.124 2.46155
5 0.069 3.26069
6 0.105 3.43085

Bond Coeffs # harmonic

1 391.67 1.458
2 714.557 1.26901
3 462.655 1.37926
4 357.44 1.08142
5 111.058 2.0797
6 602.435 0.966432
7 19.4418 3.0801
8 140.566 1.98832
9 663.719 1.34507
10 529.725 1.45008
11 331.069 1.1094
12 369.944 1.486

Dihedral Coeffs # harmonic

1 1.25 -1 2
2 6.73711 -1 2
3 3.36856 -1 2
4 0.166667 1 3
5 0.833333 -1 2

Atoms # full

34 444 1 0 2.326988374111302 2.0914137211244643 6.550613703589194 0 0 0
35 444 2 0 1.9931514858355406 1.7779634465675966 5.512321699087445 0 0 0
26 444 1 0 1.7009435958644252 3.0485049076673914 7.271195958428244 0 0 0
29 444 1 0 3.206026144744066 2.707777854903818 9.132699289337461 0 0 0
31 444 1 0 3.8214237644420583 1.6998105384072322 8.413037215666023 0 0 0
33 444 1 0 3.3292527239606713 1.2780424067598684 7.143465951797092 0 0 0
143 444 2 0 5.827767753535523 1.4841412977250459 1.8621777620237168 0 0 0
27 444 1 0 2.1128734432757703 3.356544075442823 8.583496759052158 0 0 0
36 444 1 0 4.045651484757093 0.14199138066629757 6.479827508845675 0 0 0
30 444 2 0 3.4544592861023986 2.919867763967779 10.157580169797411 0 0 0
47 444 2 0 2.160529934728803 5.113151495684974 2.336104711967703 0 0 0
25 444 1 0 0.6243505426919047 3.844620172691826 6.583339199851602 0 0 0
32 444 2 0 4.567483959646415 1.0908959537767429 8.880603548002341 0 0 0
28 444 2 0 1.6041395711925868 4.080464617481325 9.227716675255468 0 0 0
149 444 3 0 0.46687321606939247 3.8308254805693434 5.321105216870334 0 0 0
396 444 3 0 5.3338610932951935 0.06542130378009325 6.61824286660414 0 0 0
151 444 3 0 0.3253541122687911 4.937251237456286 4.063904447792495 0 0 0
48 444 1 0 3.8767913943931678 6.254417273780419 0.34538233550137454 0 0 0
397 444 3 0 5.947355814052499 -0.46359417741918874 3.5572858760280104 0 0 0
179 444 3 0 3.819554547016768 4.961818386531107 0.17960435247504836 0 0 0
395 444 3 0 3.4163444800204985 -0.7312655880531214 5.85898951102504 0 0 0
150 444 3 0 -0.2918416281116454 4.420954982691167 7.236057117246617 0 0 0
37 444 1 0 0.5282242177963965 6.19589741420895 4.171763186783385 0 0 0
46 444 1 0 2.248612445454837 6.227678371444338 2.350973385738791 0 0 0
144 444 1 0 6.489482988202347 0.3519653742325781 4.312805271614574 0 0 0
142 444 1 0 6.4320885820265135 2.1149495770887414 2.521674692365324 0 0 0
133 444 1 0 6.298289906018986 3.8458450984206216 0.7052774445419823 0 0 0
181 444 3 0 5.0345468873604124 3.890535890033574 0.5254986071859709 0 0 0
398 444 3 0 6.401491371601038 0.11372086122202174 5.617365529988237 0 0 0
38 444 1 0 1.5597799769030647 6.964872568078974 3.3164626771908736 0 0 0
152 444 3 0 -0.1985355733809271 6.879619109081981 4.902588679645291 0 0 0
45 444 1 0 3.0924292318290894 6.932822581718581 1.4614107377563699 0 0 0
180 444 3 0 4.713775220256995 6.874635950288029 -0.36982425841320365 0 0 0
141 444 1 0 6.884868505618206 1.716285893082411 3.7957372128764053 0 0 0
2278 444 1 0 7.851750118824196 8.656240147773799 -0.810784798001366 0 0 1
2530 444 6 0 -0.013303162958212544 10.715816483833578 9.184333048682118 1 0 0
1490 444 3 0 24.680433929472994 16.807908559346753 4.351098139223187 0 0 0
182 444 3 0 7.034933136102946 4.55447118055658 -0.028733649825076313 0 0 0
134 444 1 0 6.783005469121962 3.398225764250105 2.0540539251046868 0 0 0
2537 444 2 0 -1.1841541023610855 6.268991527040351 9.729724015631463 1 0 0
135 444 1 0 7.477345454788553 4.359996974974384 2.8488017760510127 0 0 0
139 444 1 0 7.61993444625069 2.668006993188092 4.623305349368898 0 0 0
136 444 2 0 7.715974049089324 5.339247596411449 2.5432369488294277 0 0 0
140 444 2 0 7.855445403173102 2.4207261027045517 5.675999495608014 0 0 0
137 444 1 0 7.944487376182401 3.952446184341726 4.121758841479586 0 0 0
138 444 2 0 8.432744068324526 4.578573249079034 4.841633696928876 0 0 0
2288 444 2 0 6.880426927908534 9.105405765893154 -0.5994444938093236 0 0 1
2092 444 5 0 15.907116508407142 24.95700253496435 7.822059574894169 0 0 0
2360 444 1 0 11.056991423479488 -0.8938106774590294 10.962055572724678 0 1 0
2359 444 2 0 9.381624459215336 0.4346505545895767 10.63753312262369 0 1 0
2355 444 1 0 8.184153133563521 -0.9771361848152831 8.687937545114623 0 1 0
430 444 2 0 3.441111367834858 0.05308862712142903 3.199338779494341 0 1 0
2383 444 2 0 7.599316733950609 -0.055818466498333885 8.689857442658605 0 1 0
2357 444 6 0 10.106340881588336 -0.21828381022501953 10.014037849439028 0 1 0
2531 444 2 0 -0.5184677115158498 11.414015321558496 8.449694394112328 0 0 0
2533 444 5 0 -0.5250013893404522 9.383775769082435 9.038252380654471 1 0 0
2527 444 1 0 -0.3411316878559303 11.205740112074732 10.623264698235802 1 0 0
2532 444 2 0 0.9967352105180629 10.755968046788315 8.964618814594697 1 0 0
208 444 4 0 6.43202788844007 6.1001966896201685 -1.3824138901695322 0 0 0
2538 444 1 0 -0.5889643023991679 8.347774412294358 9.898914535181055 1 0 0
2525 444 1 0 0.628427357662684 11.091555114321372 11.623931328009613 1 0 0
43 444 1 0 3.3816514984258363 8.275258057496014 1.680303064945037 0 0 0
44 444 2 0 4.154307354968413 8.769540260154413 1.0705890528340387 0 0 0
39 444 1 0 1.617097931947234 8.366559412661832 3.300596960969311 0 0 0
41 444 1 0 2.6191106983681527 9.008999246151166 2.5814108452192013 0 0 0
40 444 2 0 0.9733910606537151 8.923027073008138 4.044452673160198 0 0 0
42 444 2 0 2.7770690947311536 10.022976275534491 2.7650283296573113 0 0 0
2536 444 1 0 -0.9191605631549862 7.179880372149965 9.2599361236125 1 0 0
2535 444 5 0 -1.0672409363479127 7.453675219145326 7.969030536911076 1 0 0
2539 444 2 0 -0.671451561978182 8.439019652434192 10.986742215451235 1 0 0
1764 444 2 0 21.122664651443447 22.135739411016704 -0.6825838759385772 0 0 1
2529 444 2 0 1.4732030059764478 10.42895511849247 11.525137529268388 1 0 0
2544 444 2 0 -0.7288217804459152 9.325345265009283 6.868895335205879 0 0 0
2279 444 5 0 7.980239909454848 7.363913720095667 -1.2613876585246366 0 0 0
1525 444 3 0 20.65560643853506 21.722399532337523 -1.383513157340053 0 0 0
1802 444 1 0 24.22946428635218 14.549718645067983 8.753177499781756 0 0 0
2267 444 1 0 11.114862503035097 11.734608962511048 0.009925073156340725 0 0 1
2257 444 1 0 13.885788518282547 15.49277888923745 -1.1007696726547715 0 0 1
2263 444 2 0 15.14881947035552 12.369516542572939 -0.7245832717910546 0 0 1
2268 444 2 0 12.992765981974465 12.537586411841351 0.8075680960870482 0 0 1
2272 444 2 0 10.625658464224768 11.477139115807535 0.932724259323295 0 0 1
408 444 3 0 2.9215616098653143 -0.756214882422019 3.3886753740809716 0 1 0
2265 444 1 0 12.374824823662294 12.363087931103781 -0.01761338164552595 0 0 1
2364 444 2 0 12.694234617464518 -0.8529336842802219 9.54087355897569 0 1 0
2260 444 5 0 14.76449171984152 14.476273570764555 -1.2718172305744275 0 0 1
2259 444 1 0 16.03672141899756 15.079231893649123 -1.2511279077892556 0 0 0
2264 444 1 0 13.073190736522202 12.562115256872161 -1.2438880892212176 0 0 0
2275 444 2 0 8.48318580714455 11.279311115288229 -0.3434028751119429 0 0 1
2277 444 5 0 8.93817967886816 9.434233940367385 -1.2464385524371433 0 0 0
2285 444 1 0 14.580899893689907 16.70136148838657 -1.048561250807938 0 0 1
2284 444 5 0 15.905707148344412 16.447287814648817 -1.2642205994620321 0 0 1
2271 444 1 0 10.463647103285895 11.46839484275093 -1.1892588053777424 0 0 1
2274 444 6 0 8.998898059494598 10.922977841747938 -1.1973572475752763 0 0 1
431 444 2 0 -0.8271644892845343 1.6730156171611037 2.885833918144491 1 0 0
1403 444 2 0 21.82706560623737 21.973318631865915 5.531014177491869 0 0 0
199 444 4 0 -1.3795555564205642 3.9845900494767292 4.274566687681201 1 0 0
1800 444 1 0 24.09343472535159 15.194290109263275 7.590545853153428 0 0 0
1338 444 2 0 22.44682419910599 13.42185390971414 1.3932524949495175 0 0 0
1336 444 2 0 21.16641469261808 14.72752679611909 -0.26880849140038543 0 0 0
1337 444 1 0 22.481798751471096 14.52678168290144 1.508325203859737 0 0 0
1339 444 1 0 23.338172918461797 15.212656002419916 2.3811753433800957 0 0 0
1335 444 1 0 21.692970300157484 15.285172445228689 0.5384254814880587 0 0 0
1340 444 2 0 24.017532195560893 14.667210778348302 3.060931112424667 0 0 0
2534 444 1 0 -0.8219251109004347 8.816978638657648 7.848944565046672 0 0 0
1497 444 3 0 18.38882291491445 23.236172951138194 4.196824979989188 0 0 0
1341 444 1 0 23.237486116462097 16.63931732456026 2.4495550368440924 0 0 0
2093 444 1 0 15.009865368173475 23.965000297503213 7.990687368281657 0 0 0
2066 444 2 0 13.288416448567437 23.740866157104424 9.216422539085533 0 0 0
1350 444 2 0 13.360190531105529 20.65756032007128 3.1351549995105925 0 0 0
1349 444 1 0 14.341694716305353 20.921861525441095 2.845072848483448 0 0 0
1348 444 2 0 14.46519704742833 19.38092752880751 1.461716925107172 0 0 0
1347 444 1 0 15.083013333157979 20.12602925633097 1.9366336153530377 0 0 0
1352 444 2 0 14.446866291584081 22.536284423707777 4.352945617168016 0 0 0
1351 444 1 0 14.977962477159974 21.980296813122774 3.5225210337202 0 0 0
1801 444 2 0 23.380648928236543 15.03906779531997 6.744735231746779 0 0 0
2065 444 1 0 14.210342682234717 24.30645654767199 9.06707435018358 0 0 0
1489 444 3 0 23.93773328020401 18.68540664434131 3.425625285425589 0 0 0
1500 444 3 0 18.924228790402825 24.20596257833252 7.208483282703208 0 0 0
1477 444 3 0 20.888610887989703 18.74043389840146 -0.3861499618884816 0 0 0
1393 444 1 0 23.519264584895307 20.173318897192118 6.510643217433442 0 0 0
1799 444 5 0 24.908135617539884 16.26702407393073 7.573791005122793 0 0 0
1333 444 1 0 20.583666340151936 17.49327273202472 -0.16842975964593987 0 0 0
1398 444 2 0 20.92510066443516 20.851764182244168 10.296253784625238 0 0 0
1401 444 1 0 20.560545616582154 22.49874519162717 7.240667580689568 0 0 0
1342 444 1 0 22.302861822697086 17.33441524456105 1.6781147609688871 0 0 0
1399 444 1 0 20.331909930547617 22.108307594987433 8.59099790431804 0 0 0
1345 444 1 0 17.183681842253844 19.71589471326534 0.6189150599244606 0 0 0
1400 444 2 0 19.5603459923835 22.52241749123822 9.164206824278033 0 0 0
1344 444 1 0 23.98498279125963 17.407080101407868 3.4486901116713167 0 0 0
1394 444 1 0 22.469039547381605 20.918814035901352 7.200847816701394 0 0 0
1343 444 2 0 22.068274890678158 18.3480381900221 1.9168313230481766 0 0 0
1803 444 2 0 23.710445069819958 13.67828415970232 9.104488562231472 0 0 0
1478 444 3 0 19.441233621857485 17.03552921080111 -0.5764904602099225 0 0 0
1479 444 3 0 17.989906329646896 20.306331329684884 -0.23028753109014777 0 0 0
1396 444 2 0 22.720580462331583 19.900704824941574 9.0215413975279 0 0 0
2286 444 2 0 14.184705004018225 17.736943250347434 -1.0997249806389906 0 0 1
2094 444 2 0 14.913980267676113 23.101091256097984 7.395583726794504 0 0 0
1795 444 2 0 24.95544854562267 15.733676509066779 11.488756829192008 0 0 0
1397 444 1 0 21.141410836574174 21.212985740779438 9.231528894283814 0 0 0
1499 444 3 0 19.580522860495787 23.46752303402965 5.277798322970939 0 0 0
1480 444 3 0 16.958875296040222 18.476623757381567 0.4840252776771765 0 0 0
1532 444 4 0 17.47052940060709 17.683720391510757 -1.33383624934093 0 0 1
1404 444 1 0 19.653892234183918 23.47020334647427 6.568507779071512 0 0 0
1355 444 2 0 18.11060848262646 21.652772746478437 2.2511705251550786 0 0 0
1488 444 3 0 23.602421059325298 18.891628678366605 6.598107689661285 0 0 0
1354 444 1 0 17.088654812106014 21.454583771706368 2.3971279017402667 0 0 0
1487 444 3 0 24.286166618070315 20.75851567024706 5.711394665660541 0 0 0
1334 444 1 0 21.558137501171306 16.681727350159008 0.6462579558359767 0 0 0
1395 444 1 0 22.123571332039987 20.621599388535003 8.56493237716725 0 0 0
1356 444 1 0 17.104740003538875 23.2169488174664 4.100247412566263 0 0 0
1353 444 1 0 16.3817763063975 22.178870598377703 3.3163408078805796 0 0 0
1346 444 1 0 16.467806702160424 20.406590736910086 1.7080653053954753 0 0 0
1498 444 3 0 16.49690186275951 24.224322879921434 4.639214995470818 0 0 0
1402 444 1 0 21.63942499721597 21.90372120782001 6.555836501364718 0 0 0
2358 444 2 0 10.603076274381786 0.5461004523736401 9.397432301390802 0 1 0
200 444 4 0 -1.3966578426019955 6.076153237068739 6.522327493345177 1 0 0
2258 444 2 0 12.85226109621071 15.393186313347616 -1.217600306180333 0 0 1
2361 444 1 0 12.365456523291712 -1.0999633037962262 10.489867521302717 0 1 0
2356 444 5 0 9.366246273949017 -1.2199958992506899 9.283909877240841 0 1 0
2261 444 6 0 14.561342420525932 13.018761694188418 -1.4040468531725132 0 0 0
1756 444 2 0 24.587043127019726 21.346640988689835 2.035821839804324 0 0 0
2287 444 2 0 16.95735881729666 14.550929667873348 -1.4147975891186162 0 0 0
429 444 2 0 2.4779972315630214 -1.1880369208007437 2.6659288392695863 0 0 0
1769 444 2 0 20.305706152294203 25.114722984610015 1.5706040785750586 0 0 0
433 444 2 0 3.414661534762704 1.4770750638416816 -1.4477409783293322 0 0 0
1531 444 4 0 19.535565949936128 19.955088571097523 -1.431412941358313 0 0 1
207 444 4 0 4.4208816772871575 4.01705200600305 -1.4592781811377173 0 0 0
1176 444 2 0 14.486287416166201 4.645227385743781 19.795875033103805 0 0 0
1175 444 1 0 15.340244280179252 4.149606290961269 20.249377491822255 0 0 0
1178 444 2 0 15.524993620733007 2.603971508700857 18.758744179136087 0 0 0
1174 444 2 0 15.540394990649379 5.516925314161423 21.885480602013665 0 0 0
1177 444 1 0 15.872500860381347 2.9532013830865758 19.715241747732854 0 0 0
1173 444 1 0 15.971873444988667 4.6740247131235275 21.406009052903173 0 0 0
2076 444 2 0 14.014118650223072 23.64224337365082 12.667843835508053 0 0 0
641 444 3 0 2.475835243137208 20.311020800688862 25.196977956464963 0 0 0
1780 444 5 0 24.727801957616986 9.478249307171348 14.18047998404445 0 0 0
643 444 4 0 -1.32077005599912 19.209365097899013 19.847606378768297 1 0 0
1779 444 1 0 24.875751912576728 8.254659898356499 14.712687694561957 0 0 0
2378 444 1 0 14.487588370162946 -0.21536482177151872 14.790804454370164 0 0 0
1807 444 2 0 24.66026199812817 7.288368821751934 14.2475913087002 0 0 0
2379 444 2 0 13.729896449454284 0.4271973127038642 14.241575929302131 0 0 0
2515 444 1 0 -1.3573585596688857 14.992651375369888 15.90746995981523 1 0 0
2000 444 2 0 14.924938259752174 6.925304402354186 24.808737743119227 0 0 0
2375 444 5 0 15.985608908700772 -0.832031286274421 16.265978860919546 0 0 0
1292 444 3 0 21.150254721021312 3.2967316219532776 24.73469536406214 0 0 0
1179 444 1 0 16.988625610470272 2.3486787416068067 20.309775534998156 0 0 0
1270 444 3 0 16.853318005560368 0.2709944170522385 19.090976341580305 0 0 0
1172 444 1 0 17.01732471204051 4.02378558518253 22.054261172155535 0 0 0
1258 444 3 0 17.639396359776967 5.952332094228929 23.42630169911697 0 0 0
1171 444 1 0 17.63396372695476 4.698978461379694 23.26187643487477 0 0 0
1180 444 1 0 17.542401479628662 2.825998753861656 21.512806354986743 0 0 0
1182 444 1 0 17.611250976103875 1.1166997727663783 19.733050046805054 0 0 0
1210 444 2 0 19.418318042024925 1.567307706072499 14.72338085385547 0 0 0
1181 444 2 0 18.504401519840734 2.4385576161614484 21.855854948757862 0 0 0
1209 444 1 0 20.087777803683856 2.331171738585348 15.262567411906062 0 0 0
1215 444 1 0 22.222542912848507 3.735331755630269 16.59342339802263 0 0 0
1213 444 1 0 21.913327797961728 4.04688322197507 15.23448502296145 0 0 0
1208 444 1 0 20.34154068812452 2.172267417477774 16.689827501480064 0 0 0
1216 444 1 0 21.374221043225134 2.863171621071066 17.348138051807425 0 0 0
1217 444 2 0 21.501699253855964 2.690981517170756 18.39332573080997 0 0 0
1211 444 1 0 20.892417952923573 3.279796748598682 14.599330983910694 0 0 0
1157 444 2 0 22.065098379624406 5.830040756769575 21.754700653989016 0 0 0
1218 444 1 0 23.384169677148073 4.340884921089683 17.334484635767218 0 0 0
1212 444 2 0 20.727609398203118 3.380227735807672 13.511876364283795 0 0 0
1207 444 1 0 19.676774448819245 1.0130256468350811 17.367202424350058 0 0 0
1214 444 2 0 22.395742570505174 4.828502819519705 14.689957692730076 0 0 0
1257 444 3 0 18.279002779085076 4.007938875770277 24.100506926040183 0 0 0
1268 444 3 0 19.08377727710103 0.11763448201838012 16.68378427790633 0 0 0
1251 444 3 0 20.695971972701262 5.982765648063029 24.143795754317264 0 0 0
1147 444 1 0 20.218394894804916 6.905484665040458 23.450469905864228 0 0 0
1267 444 3 0 19.754751529658865 0.9055449579769073 18.64622894292535 0 0 0
1289 444 3 0 23.47825462163871 4.404362714492516 18.59453771299482 0 0 0
1269 444 3 0 18.88533368196888 0.9757054517330477 19.78708876677889 0 0 0
1158 444 1 0 23.59170180576008 6.804340040372345 19.74151916089735 0 0 0
1156 444 1 0 21.9165256778029 6.897698406829704 21.58358807358414 0 0 0
1290 444 3 0 24.119871462425206 5.041339660189386 16.62149430390194 0 0 0
1287 444 3 0 23.548668773072645 5.470459325831067 19.67659333709302 0 0 0
1252 444 3 0 18.95843290441864 7.158358103355953 23.520392009301087 0 0 0
1148 444 1 0 21.000703162300905 7.571197829202685 22.40563125177425 0 0 0
874 444 2 0 2.832873580658978 24.70197497465996 22.000306502808144 0 0 0
1304 444 4 0 17.50290801877205 -1.0601350272545376 17.597009065228537 0 0 0
2376 444 1 0 15.325077702052326 0.19713488841073068 15.815816056811322 0 1 0
579 444 1 0 7.7638120504253685 19.403123317131044 21.238239633625412 0 0 0
2366 444 2 0 9.782837509661716 -0.8437875515520127 12.605673901415905 0 0 0
2377 444 2 0 15.459555671554234 1.2844666816095727 16.16908896685864 0 1 0
1303 444 4 0 19.57972990220482 -1.0349726392463385 19.656708098657997 0 0 0
1310 444 2 0 21.217228272094708 3.184446319463534 23.789773741543886 0 0 0
486 444 2 0 4.279519226565093 14.47270222758344 19.521856157595256 0 0 0
488 444 2 0 5.014005175790102 14.906183782090572 21.82646817174402 0 0 0
485 444 1 0 3.7130552188002763 15.175894757202439 20.18579483424168 0 0 0
487 444 1 0 4.176143093472736 15.458445184414419 21.479013091117984 0 0 0
484 444 2 0 2.4609000365140883 15.761961534143197 18.65818279686427 0 0 0
483 444 1 0 2.702835649657895 15.93814905485711 19.671145812176263 0 0 0
877 444 2 0 2.3591104746387686 21.291194025371677 25.2732042561183 0 0 0
2518 444 2 0 -0.5684491372980961 12.336961114721216 15.425162012711649 1 0 0
2540 444 5 0 -0.8464034795686936 16.247789212906635 15.992210193726713 1 0 0
1789 444 1 0 24.226476651951135 13.548737228444386 12.288248236083403 0 0 0
1790 444 2 0 23.010238528988552 12.164795319920039 13.388296682236387 0 0 0
2517 444 6 0 -1.2162606440531516 12.860723598218513 14.636293721656997 0 0 0
2516 444 5 0 -0.9534391079413522 14.288530447357365 14.818750414070717 0 0 0
2513 444 1 0 -0.19017329121021365 15.155652133267129 14.169199343371154 0 0 0
2520 444 1 0 -0.9224862971734249 12.256962276083058 13.252356004711656 0 0 0
2514 444 2 0 0.3331462824594664 14.926790604434196 13.271276472509113 0 0 0
2079 444 1 0 10.75608625484697 24.471762373507627 12.803804324462586 0 0 0
2073 444 1 0 13.132970406291642 24.25705547239354 12.518632833946526 0 0 0
1781 444 6 0 24.10050912859225 9.724075672849283 12.860702120633812 0 0 0
1980 444 2 0 11.556631643464595 13.23713478024746 24.065601237983042 0 0 0
1977 444 1 0 11.704776957022691 12.54380912782391 24.856677201709807 0 0 0
1984 444 2 0 12.352284081592039 10.82404211816105 23.625641459012275 0 0 0
1979 444 1 0 12.184853681867533 11.22428510788396 24.636691363796576 0 0 0
1988 444 2 0 12.772837357928546 8.554411878089333 24.660287415843534 0 0 0
1778 444 2 0 24.59363555697445 11.286384760776343 15.077141915555536 0 0 0
2082 444 6 0 9.472659609074544 24.017598924294905 13.436352095547152 0 0 0
1786 444 1 0 23.8476670769844 12.333722382762215 12.7412147656131 0 0 0
1784 444 1 0 24.502007184220616 11.134642930508278 12.316727718533652 0 0 0
2362 444 1 0 10.71014124321063 -1.1886259560791972 12.239397141466998 0 0 0
1783 444 2 0 22.97362796786207 9.740480093385203 13.02914579361033 0 0 0
1155 444 1 0 22.538574963062096 7.53489861487134 20.476961070197955 0 0 0
1288 444 3 0 24.48259526117199 7.437292060915469 19.117767679307274 0 0 0
1777 444 1 0 24.890239535342882 10.310473133600823 15.187676930394751 0 0 0
584 444 2 0 8.118760320587036 21.791588641326108 18.720959650394704 0 0 0
1782 444 2 0 24.401292283118213 8.930145367967738 12.072393236719375 0 0 0
1149 444 1 0 20.898927689301587 8.942997282480308 22.326775903784807 0 0 0
1150 444 2 0 20.244324506020792 9.494702562358386 22.92884139544613 0 0 0
1153 444 1 0 22.323069098367334 8.932620542605092 20.351392324735677 0 0 0
1154 444 2 0 22.75546074549942 9.44214282608076 19.48420614154715 0 0 0
1151 444 1 0 21.62645662224019 9.618218981981911 21.288469654378602 0 0 0
1152 444 2 0 21.394271785482786 10.760535990841928 21.12628548775655 0 0 0
2369 444 2 0 11.477110682351947 -1.363446951653082 14.216313482600183 0 0 0
1294 444 3 0 20.93948286334559 -1.2134692101307756 21.22277141359928 0 0 0
582 444 2 0 9.201344181514214 19.635109168393832 19.595991261184572 0 0 0
2541 444 1 0 -0.024380483704631972 16.323312000441433 14.925738181100112 0 0 0
2522 444 1 0 0.31728940567260233 11.531748105640649 12.97524594460013 1 0 0
2526 444 2 0 1.04635242048014 11.401082467846914 13.821960977269578 1 0 0
2083 444 2 0 8.700535046529556 24.12600369308913 12.595345184142738 0 0 0
596 444 3 0 -0.040794011713267686 16.711185169224553 19.101811115266628 0 0 0
489 444 1 0 3.576268946653074 16.515673400783655 22.269743391418228 0 0 0
482 444 1 0 1.9410147823667423 16.793858806869892 20.42360172563781 0 0 0
644 444 4 0 -1.2580463922338851 17.49806725454692 17.426823637749226 1 0 0
2542 444 2 0 0.6487732196981206 17.165525829863018 14.72663861634829 0 0 0
842 444 3 0 6.931753152388341 23.907671446009033 19.12017947153972 0 0 0
578 444 1 0 6.719075858706793 20.0039743814414 21.961536610491862 0 0 0
594 444 3 0 -0.35228525079872575 19.257521421995975 16.80473101571751 0 0 0
476 444 2 0 4.139786705200027 22.870061674479597 14.802740753660174 0 0 0
472 444 2 0 0.9234683772607621 19.990752798461244 14.70033857131223 0 0 0
480 444 1 0 3.982802553976809 23.594902353919192 17.473186619250647 0 0 0
626 444 3 0 6.513875566031169 18.326095576359215 23.570571554971323 0 0 0
587 444 2 0 5.366890030755589 21.69364990300972 21.957117338206544 0 0 0
475 444 1 0 3.35732618645316 22.343979536897486 15.369920130889597 0 0 0
481 444 1 0 0.7271925823740337 17.437630230837897 19.79080055657477 0 0 0
474 444 2 0 2.8319769340994165 21.170858484761993 13.63276682965912 0 0 0
595 444 3 0 0.6560019850986902 18.689763161991497 19.90099583572303 0 0 0
491 444 2 0 1.7662533597429688 17.829351784847006 22.36987400976478 0 0 0
839 444 3 0 3.9313968442756106 23.76129119267935 18.694152456491317 0 0 0
490 444 1 0 2.4421692042972722 17.15556831080297 21.722254039046266 0 0 0
593 444 3 0 0.4206036721885398 19.821313627294447 18.771639895072454 0 0 0
625 444 3 0 5.629510199962285 20.281339764432524 24.168164551082214 0 0 0
841 444 3 0 4.943964368156868 23.541633724113158 20.089856731947616 0 0 0
471 444 1 0 1.6537742155799695 20.643004593845944 15.358062360700497 0 0 0
586 444 1 0 6.238836487927652 21.246331202098265 21.535703742734434 0 0 0
469 444 1 0 0.496519705381852 19.900249429628044 17.51077485051417 0 0 0
585 444 1 0 6.729050497348682 21.898223144287787 20.320481749113455 0 0 0
623 444 3 0 3.4122190287764527 17.896737269791167 24.28789771716308 0 0 0
577 444 1 0 6.2451185343518025 19.51537428193446 23.28036759662595 0 0 0
840 444 3 0 4.784303991913288 24.330502983072932 16.820473280987457 0 0 0
492 444 1 0 4.1270406283967125 17.09470737900386 23.464914733432227 0 0 0
473 444 1 0 2.55898359069144 21.40085280039867 14.657254097317956 0 0 0
477 444 1 0 3.1882866563960075 22.55881570689984 16.73555286343312 0 0 0
478 444 1 0 2.2367023042054237 21.743736016456705 17.404924936592582 0 0 0
624 444 3 0 5.390990769445964 16.95235808719945 23.68097604923099 0 0 0
470 444 1 0 1.5474767339316509 20.69405431146997 16.76101797503173 0 0 0
588 444 1 0 6.185029438308445 23.13650751176692 19.82590245093445 0 0 0
479 444 2 0 1.9138300440577034 22.05591713153893 18.40432106501095 0 0 0
2085 444 5 0 9.106142810797442 24.734875553736654 14.679712986075238 0 0 0
2080 444 2 0 11.985225695347424 22.904346922842933 13.78699530425371 0 0 0
2084 444 2 0 9.534891289589918 22.89305386074539 13.646884893949217 0 0 0
2086 444 1 0 8.06445931417836 24.393048060990857 15.531807439426668 0 0 0
581 444 1 0 8.30741288010708 20.00952662692632 20.068305984068978 0 0 0
2075 444 1 0 11.947453851891911 23.84640509958609 13.14276655801783 0 0 0
580 444 2 0 8.08863303085004 18.43137020784847 21.396720701813635 0 0 0
2096 444 2 0 7.472806950999084 23.49863106189469 15.39477081234341 0 0 0
583 444 1 0 7.722240097830813 21.195106080465607 19.5385987588179 0 0 0
1793 444 2 0 23.71637234407552 14.418966260053978 12.555463788788277 0 0 0
878 444 2 0 1.7797566780604097 19.772813138514813 24.803291414491422 0 0 0
2365 444 1 0 11.713469466549592 -1.4737970339948976 13.1426585732557 0 0 0
1324 444 2 0 20.785982831934763 -0.9362332416799753 22.10173949712247 0 0 0
1317 444 2 0 25.133102776965224 2.3074577799509806 20.832187364792325 0 0 0
1990 444 1 0 15.247542110652166 7.908548232327332 25.270419565805547 0 0 0
1104 444 2 0 13.483065186642468 2.7976494061848527 28.76830316595848 0 0 0
1103 444 1 0 14.534071947187172 2.716801091041175 28.860806664701137 0 0 0
1106 444 2 0 14.775217722193506 4.187145980898129 27.287200498659104 0 0 0
1102 444 2 0 14.604449894834296 1.1128809686638943 30.228065717198177 0 0 0
1101 444 1 0 15.1816612768188 1.792228252332228 29.67545252732496 0 0 0
1105 444 1 0 15.330787547578094 3.543796744486375 27.991285379651284 0 0 0
2339 444 2 0 14.62861534303245 1.0415606533633583 37.81323742970303 0 0 0
1996 444 5 0 7.69690090324683 15.797954626534 25.70745475792093 0 0 0
1107 444 1 0 16.73251168201374 3.4676403894354477 27.99754611209448 0 0 0
1244 444 3 0 16.633447622951593 0.05647655043743316 31.501536268962987 0 0 0
1100 444 1 0 16.619846996814616 1.6219513123401554 29.66898394944521 0 0 0
1246 444 3 0 18.97254025660849 0.16624467178925073 33.66971389521181 0 0 0
1243 444 3 0 18.56044103995298 0.3076450661803256 30.441856952818505 0 0 0
1108 444 1 0 17.354377237338962 2.4780926221708635 28.835712187228356 0 0 0
1099 444 1 0 17.33472981172775 0.6156142838148082 30.594607955137583 0 0 0
1116 444 2 0 20.14575853941644 3.741835812446779 36.805590762973296 0 0 0
1255 444 3 0 18.838918215592486 4.255523157845206 27.094931333625222 0 0 0
1109 444 2 0 18.454470139111194 2.490960459567658 28.875094304483703 0 0 0
1120 444 1 0 21.26953918676032 2.8245209374003704 33.17342912853029 0 0 0
1119 444 1 0 21.959714040840236 3.797856995947048 33.93181066062687 0 0 0
1121 444 2 0 21.647800958107872 2.6456747871885753 32.19197966575478 0 0 0
1112 444 1 0 20.32104461606066 2.095184593809366 33.79183983328496 0 0 0
1117 444 1 0 21.57809249262502 4.049856138651928 35.280939255947565 0 0 0
1113 444 1 0 19.824199310807344 2.455299966934273 35.11871040769181 0 0 0
1115 444 1 0 20.473022103171793 3.5000587561271344 35.83794037118897 0 0 0
1169 444 2 0 21.946181480221206 5.737065575522885 28.969553178238836 0 0 0
1263 444 3 0 23.44946613065963 4.411154518001766 32.124837533079 0 0 0
1122 444 1 0 23.219882766420596 4.431766219103427 33.36048452195131 0 0 0
1111 444 1 0 19.67617691693641 0.966564691166943 32.961206285229245 0 0 0
1118 444 2 0 22.15174938588739 4.844207444248372 35.849688144552246 0 0 0
1110 444 1 0 17.564323638791773 4.376974426758481 27.063697020802707 0 0 0
1170 444 1 0 23.602917170410663 6.544330104588447 30.899505859767736 0 0 0
1265 444 3 0 23.62263056657657 5.262514348667838 30.775811579923918 0 0 0
1253 444 3 0 19.98872190410611 5.475340614310293 27.389865092610112 0 0 0
1114 444 2 0 18.972491975778603 1.981298787937886 35.48750104267036 0 0 0
1168 444 1 0 21.942042361467266 6.816256298395944 28.984462332185814 0 0 0
1159 444 1 0 20.067009527970566 6.780469052255734 27.3207627688367 0 0 0
1264 444 3 0 24.13731474171669 4.824811525164437 34.11075324280895 0 0 0
1245 444 3 0 19.928183301166154 0.6817923270879318 31.75751491826854 0 0 0
1256 444 3 0 17.044357071100745 5.164571902965839 26.287958101114647 0 0 0
1266 444 3 0 24.369200235044566 7.128094818968888 31.680985399743157 0 0 0
1167 444 1 0 22.63503525977656 7.3335779072824465 30.07992598388187 0 0 0
1160 444 1 0 20.920734425380054 7.514285070972299 28.31753499030877 0 0 0
1254 444 3 0 19.48819043367935 7.4828045351834245 26.445187658664523 0 0 0
1903 444 2 0 24.139967509594747 6.533869746721068 36.32383762195383 0 0 0
640 444 3 0 -0.7595026309861234 20.598476333502155 29.273556271771287 1 0 0
1976 444 1 0 11.49998243199105 13.003181667504355 26.177269334165544 0 0 0
570 444 2 0 4.799368211997505 14.394599906475756 31.05874967877501 0 0 0
569 444 1 0 4.140126602892352 15.18486586877222 30.619011800443054 0 0 0
571 444 1 0 4.682790735358027 15.768261169731499 29.458786722855393 0 0 0
572 444 2 0 5.647031669540637 15.517008063319889 29.099246399852447 0 0 0
567 444 1 0 2.965063276782643 15.549848799402533 31.21016429231298 0 0 0
568 444 2 0 2.5885452958568855 14.904202641387403 32.04795988801356 0 0 0
2109 444 1 0 11.123229294213557 24.903428659593665 38.3955624560603 0 0 0
2447 444 2 0 -1.3601890053241557 13.629417255275593 33.512948275981195 0 0 0
849 444 3 0 2.608243554612039 24.90216270473784 29.741710597544795 0 0 0
2111 444 1 0 11.64075861791348 24.78230752064458 37.08478066055421 0 0 0
1298 444 4 0 17.32193417594491 -1.0684876307223168 33.02273731944448 0 0 0
1994 444 1 0 15.254159205484076 9.777564424843513 26.497543504867824 0 0 0
1975 444 2 0 11.030025869444502 14.621978731219198 27.524256628481137 0 0 0
1981 444 1 0 12.163785023352345 10.868736270916234 27.043900939444892 0 0 0
1985 444 2 0 12.267130937775173 10.210629162782263 27.90273757839194 0 0 0