LAMMPS data file via write_data, version 7 Feb 2024, timestep = 16817719, units = real

2544 atoms
6 atom types
2976 bonds
12 bond types
5712 angles
23 angle types
5952 dihedrals
5 dihedral types
3600 impropers
1 improper types

6.699999999999992 43.70492899999991 xlo xhi
6.699999999999992 43.683698999999905 ylo yhi
6.699999999999992 43.9601089999999 zlo zhi
-0.054235 0.003807 -0.057864 xy xz yz

Masses

    1    12.010700000 # C_R
    2     1.007940000 # H_
    3    15.999400000 # O_2
    4    65.380000000 # Zn2f2
    5    14.006700000 # N_R
    6    12.010700000 # C_3

Bond Coeffs

    1      391.669513        1.458000  # C_R C_R
    2      714.557442        1.269010  # C_R O_2
    3      462.655054        1.379256  # C_R C_R
    4      357.440381        1.081418  # C_R H_
    5      111.058393        2.079698  # O_2 Zn2f2
    6      602.435128        0.966432  # O_2 H_
    7       19.441823        3.080101  # Zn2f2 Zn2f2
    8      140.566051        1.988323  # Zn2f2 N_R
    9      663.718927        1.345073  # C_R N_R
   10      529.724731        1.450075  # N_R C_3
   11      331.069389        1.109401  # C_3 H_
   12      369.943935        1.486000  # C_3 C_R

Angle Coeffs

    1              cosine/periodic      137.714246              -1               3 # C_R C_R O_2
    2              cosine/periodic      206.778426              -1               3 # O_2 C_R O_2
    3              cosine/periodic      102.183280              -1               3 # C_R C_R C_R
    4              cosine/periodic      111.297508              -1               3 # C_R C_R C_R
    5              cosine/periodic       57.289016              -1               3 # C_R C_R H_
    6              cosine/periodic       39.441082              -1               3 # C_R O_2 Zn2f2
    7              cosine/periodic       17.706467              -1               3 # Zn2f2 O_2 H_
    8              cosine/periodic       44.863234              -1               3 # H_ O_2 H_
    9              cosine/periodic       46.978550              -1               3 # O_2 Zn2f2 O_2
   10              cosine/periodic       13.328014              -1               3 # O_2 Zn2f2 Zn2f2
   11              cosine/periodic       55.506670              -1               3 # O_2 Zn2f2 N_R
   12              cosine/periodic       15.376901              -1               3 # Zn2f2 Zn2f2 N_R
   13              cosine/periodic       79.786967              -1               3 # H_ C_R N_R
   14              cosine/periodic      153.699352              -1               3 # N_R C_R C_R
   15              cosine/periodic      212.442573              -1               3 # N_R C_R N_R
   16              cosine/periodic      120.000516              -1               3 # C_R N_R C_R
   17              cosine/periodic      106.782348              -1               3 # C_R N_R C_3
   18                      fourier      170.007371        0.343737        0.374972        0.281246 # N_R C_3 H_
   19                      fourier      312.548166        0.343737        0.374972        0.281246 # N_R C_3 C_R
   20                      fourier       75.498766        0.343737        0.374972        0.281246 # H_ C_3 H_
   21                      fourier      121.777217        0.343737        0.374972        0.281246 # H_ C_3 C_R
   22              cosine/periodic       99.137149              -1               3 # C_3 C_R C_R
   23              cosine/periodic       41.111398              -1               3 # Zn2f2 N_R C_R

Dihedral Coeffs

    1        1.250000              -1               2 # O_2 C_R C_R C_R
    2        6.737110              -1               2 # C_R C_R O_2 Zn2f2
    3        3.368555              -1               2 # C_R C_R C_R H_
    4        0.166667               1               3 # C_R N_R C_3 H_
    5        0.833333              -1               2 # N_R C_3 C_R C_R

Improper Coeffs

    1        2.000000        1.000000       -1.000000        0.000000               0 # C_R C_R O_2 O_2

Pair Coeffs

    1        0.105000        3.430851 # C_R C_R
    2        0.044000        2.571134 # H_ H_
    3        0.060000        3.118146 # O_2 O_2
    4        0.124000        2.461553 # Zn2f2 Zn2f2
    5        0.069000        3.260689 # N_R N_R
    6        0.105000        3.430851 # C_3 C_3

Atoms # full

142 444 1 0 12.96086036647546 11.671665572469145 10.627436699591362 0 0 0
143 444 2 0 12.24340865726851 11.07986126268952 10.025242781271707 0 0 0
141 444 1 0 12.584837222380493 12.161710623596658 11.91056310676208 0 0 0
420 444 4 0 8.996456704427867 12.647825398785132 14.588082449375491 0 1 0
144 444 1 0 11.213960263225983 11.92996314334057 12.44528274411972 0 0 0
398 444 3 0 10.738669556728624 12.712952036654812 13.351613614377882 0 0 0
397 444 3 0 10.460461653853455 11.016865713265652 11.910869192546834 0 0 0
36 444 1 0 8.67341710264271 14.05009629028406 12.156440607237187 0 0 0
396 444 3 0 9.578838240207979 13.89456395454457 13.034571312872673 0 0 0
395 444 3 0 7.805686706490038 13.124332087420665 11.95018727096171 0 0 0
419 444 4 0 8.414873428481885 11.080498040460515 12.189060491852562 0 1 0
408 444 3 0 7.708868046654276 10.337961763092228 10.420057309139043 0 1 0
400 444 3 0 9.889206866150756 10.965945797009454 15.39973559332224 0 1 0
399 444 3 0 8.860257452435883 9.684746110049582 13.839535790699394 0 1 0
270 444 1 0 9.571700590786563 9.810727828709151 14.918060361093131 0 1 0
134 444 1 0 14.270086813439434 11.901807191563483 10.125916125664212 0 0 0
139 444 1 0 13.48026954432973 12.971643127283535 12.628144451643866 0 0 0
140 444 2 0 13.211641353466774 13.437979154022774 13.555824847208289 0 0 0
35 444 2 0 7.622941514401346 14.481380866650408 9.67046956245755 0 0 0
181 444 3 0 13.933379387488513 10.500581596006402 8.280218949086045 0 0 0
133 444 1 0 14.69937519916877 11.302870358104276 8.850124187629527 0 0 0
34 444 1 0 8.147040827032368 15.321186426114412 10.077099596042178 0 0 0
137 444 1 0 14.769769062581174 13.201374195779671 12.110632882059946 0 0 0
33 444 1 0 8.719922471446846 15.26336231515946 11.363796150741834 0 0 0
135 444 1 0 15.15832076879535 12.683750969055875 10.87955465222521 0 0 0
401 444 3 0 7.2474068120696264 10.05969206812133 13.60744530979604 0 1 0
269 444 2 0 9.571470912172344 7.250100294718417 14.050623760964378 0 1 0
268 444 1 0 9.759417451426867 7.3433637192307755 15.114839852645618 0 1 0
149 444 3 0 7.248562677593951 15.53425875447837 7.359343854813307 0 0 0
182 444 3 0 15.692627794715108 11.788148729684194 8.199759189418542 0 0 0
138 444 2 0 15.42295661821268 13.829174449464228 12.7322857429447 0 0 0
267 444 1 0 9.871645958913394 8.569787740455242 15.726844176276071 0 1 0
2383 444 2 0 10.590494704229584 15.288517060364383 15.563899658358583 0 1 0
402 444 3 0 6.9669109104566065 12.084392488650444 14.377168814264305 0 1 0
429 444 2 0 7.826699166369657 10.790950996673415 9.595654665035752 0 0 0
41 444 1 0 13.832404359748347 16.469445476240267 6.9868726725866175 0 0 0
430 444 2 0 7.298311598440616 9.47652770460783 10.368571954055321 0 1 0
44 444 2 0 15.513863594384913 15.155471352743733 6.987873511244535 0 0 0
1654 444 2 0 13.572685045993488 25.102268230875712 11.667899843667001 0 0 1
451 444 1 0 7.8281824396785655 18.48038361566774 15.930810796687982 1 0 0
1657 444 1 0 13.971043283952003 22.18891042849564 9.881187981675936 0 0 1
452 444 2 0 7.551561401871229 17.45622532714143 15.874421604541048 1 0 0
2541 444 1 0 9.400726709360347 24.17174713285097 12.139069714701138 0 0 0
1364 444 2 0 15.769597289603622 17.110457358857424 9.516167424785376 0 0 1
450 444 2 0 9.009673974275715 18.271677889021085 14.139544775323142 1 0 0
644 444 4 0 10.286914623183268 25.036197188196752 14.787142928742435 1 0 0
447 444 1 0 9.019488031581952 20.33732575604388 14.917080609910995 1 0 0
40 444 2 0 11.964873971037687 17.54374287769666 6.97763886807729 0 0 0
2542 444 2 0 8.825840844617884 23.383661252433157 12.626016897787594 0 0 0
1659 444 1 0 15.018627489115017 22.621903189167874 9.013853766036597 0 0 1
2520 444 1 0 10.590442757301483 25.099589556167732 8.141473948297001 0 0 0
1660 444 1 0 15.503410525316527 23.95156944252301 9.098909477796482 0 0 1
39 444 1 0 12.445131368672834 16.623389553300036 6.725382766033323 0 0 0
2514 444 2 0 9.010922031272223 23.72848431095971 10.088690831991133 0 0 0
449 444 1 0 8.654660593484644 18.9649682232459 14.91458401887785 1 0 0
28 444 2 0 9.306654852514288 18.33833878490924 9.087629060237791 0 0 0
26 444 1 0 8.37387368810442 16.450019329058605 9.247416167524863 0 0 0
1652 444 1 0 14.97668753709852 24.849530451847613 10.023616789759673 0 0 1
448 444 2 0 9.607458560259367 20.714042515262175 14.083633085623642 1 0 0
1658 444 2 0 13.619404498795603 21.13875112938841 9.794146409677166 0 0 1
2526 444 2 0 12.639107217223344 24.602571205518974 8.000357761573445 1 0 0
2521 444 1 0 9.360988669483614 24.982649046109564 7.539220387153823 0 0 0
2522 444 1 0 11.67705091491419 24.460589150516004 7.608876594504285 1 0 0
434 444 2 0 12.002290480452702 8.17438810015541 7.028401725548373 0 0 1
31 444 1 0 9.444737101898216 16.38404756405513 11.812799888898235 0 0 0
29 444 1 0 9.598486993009189 17.51766940985747 11.031582779071414 0 0 0
1655 444 1 0 13.504711424512212 23.096235719549743 10.865881815401343 0 0 1
1653 444 1 0 13.989062471378954 24.431132941794328 10.922241900048252 0 0 1
27 444 1 0 9.098178098666937 17.52638951328558 9.76118746301937 0 0 0
42 444 2 0 14.385051457482291 17.274715272370237 7.427368680026244 0 0 0
32 444 2 0 9.812934445341211 16.425472115460003 12.83465041484256 0 0 0
30 444 2 0 10.13462910201327 18.373865145055387 11.357423679007333 0 0 0
1656 444 2 0 12.80556625305029 22.75983748798935 11.616659041709001 0 0 1
484 444 2 0 14.40312763914745 23.653757675904316 15.421047399216668 0 0 0
2513 444 1 0 9.48999482491358 24.384063303324037 10.792402613857492 0 0 0
596 444 3 0 12.049673569365112 24.671066830103623 15.861772435703132 0 0 0
2540 444 5 0 10.210319079931606 25.02744418010965 12.817341648261154 1 0 0
590 444 3 0 9.927158035079195 22.980673167250604 15.202693608920043 1 0 0
25 444 1 0 8.024452949513968 16.429924931054746 7.823108844920423 0 0 0
150 444 3 0 8.615716435839431 17.21705070436326 6.974673612789436 0 0 0
1734 444 3 0 15.132904877977053 20.562308498158743 7.822719131637489 0 0 1
1662 444 1 0 15.596427372064364 21.73625963712492 7.997650530146331 0 0 1
446 444 1 0 8.604682544932373 21.18997897914249 15.97449640272326 1 0 0
43 444 1 0 14.46045323399077 15.261933019811428 6.7153807281535105 0 0 0
2373 444 5 0 12.830679107779265 14.58810156177623 23.448911424490547 0 0 0
2378 444 1 0 11.91207625134242 13.611955755453327 23.623575693756955 0 0 0
2374 444 1 0 14.037033848835971 13.990341774226842 23.43553166643683 0 0 0
2376 444 1 0 12.598951915953979 12.42274885197769 23.747206503847767 0 1 0
2375 444 5 0 13.905490984362265 12.673672639336909 23.65140593582707 0 0 0
2384 444 2 0 14.945430241972579 14.513844908407876 23.16687656719375 0 0 0
1304 444 4 0 15.515899462921764 11.484971562854 23.674306400528977 0 0 0
1272 444 3 0 15.0117350925125 9.484057013884428 24.268929801811954 0 1 0
1274 444 3 0 15.235637563408863 9.641682805382644 22.638363329244775 0 1 0
2379 444 2 0 10.870676698809735 13.73418512072427 23.68361173326183 0 0 0
2377 444 2 0 12.190595736197878 11.495302276690046 24.002372359331368 0 1 0
525 444 1 0 8.097467841711826 14.780081381548918 24.06644182341018 1 0 0
523 444 1 0 8.132087434342179 13.40855263003413 23.8570593657417 1 0 0
266 444 2 0 10.474182493668874 9.66007371730496 17.48726496468113 0 1 0
992 444 2 0 13.83604395207232 8.993488736928306 20.39467629524772 0 1 0
265 444 1 0 10.349438367430656 8.674440958711331 17.03548625030911 0 1 0
2381 444 1 0 8.135019520304493 14.009072354554396 17.12133018472337 0 0 0
2353 444 1 0 8.460096721616425 15.060458871412642 17.944560631370518 0 1 0
991 444 1 0 14.600379373668677 8.266353843414073 20.16272546762568 0 1 0
524 444 2 0 8.625632428521639 12.755936738339434 24.615300401722806 1 0 0
2382 444 2 0 7.463723623134235 13.194407771835625 17.334791462729363 0 0 0
264 444 2 0 10.843523977056538 7.552977278687445 18.849921504026895 0 1 0
263 444 1 0 10.551579974486568 7.497602996258556 17.783862162404724 0 1 0
2354 444 2 0 8.033711925748772 15.292699424805896 18.89646983388672 0 1 0
521 444 1 0 7.664797178558156 12.859708581483648 22.654362419471717 1 0 0
526 444 1 0 7.445504087719434 15.612432789867329 23.117603100348596 1 0 0
2369 444 2 0 13.755601579485436 15.540877540635865 20.763034241022403 0 0 0
522 444 2 0 7.734139617530653 11.750006974027716 22.497878398337477 1 0 0
2355 444 1 0 9.842307380931075 14.984364268087765 16.271372262611262 0 1 0
2356 444 5 0 9.532098685096955 15.669742290275884 17.380931548488192 0 1 0
2366 444 2 0 12.68118252009966 15.735979565141914 18.45445706326654 0 0 0
518 444 1 0 6.900493082373039 15.080732154960527 21.947378564331355 1 0 0
1222 444 2 0 13.173668668063584 7.986967056629605 25.181406832262297 0 1 0
2365 444 1 0 12.701292981970234 15.839462496065403 20.642849464518967 0 0 0
1219 444 1 0 15.749089011343802 8.805011197154196 25.083955545304473 0 1 0
528 444 1 0 8.511623879978933 15.370481632964122 25.327629723490304 1 0 0
571 444 1 0 15.58121685541829 18.060600772340344 25.144466071545796 0 0 0
993 444 1 0 15.8414242029523 8.260223471892623 20.8128540291397 0 1 0
2380 444 5 0 8.969767226232625 13.990885335879156 16.06593940885604 0 1 0
485 444 1 0 15.882327360945949 23.06571751769019 16.906038327242502 0 0 0
625 444 3 0 14.866286305865101 24.95847592789632 23.568039769062903 0 0 0
2370 444 6 0 12.541067291748718 16.013316407840136 23.180972649086353 0 0 0
519 444 1 0 7.068163354029696 13.697116958997047 21.678430840001756 1 0 0
2361 444 1 0 10.164134563437555 16.933911827598184 20.399968956495897 0 1 0
622 444 3 0 15.870820101180714 20.528648839462825 23.605069656354747 0 0 0
990 444 2 0 13.462154592647575 7.321755420103922 18.626856278861055 0 1 0
2362 444 1 0 12.131825825934332 15.963692768828546 19.364333398220644 0 0 0
2367 444 1 0 11.962051877518501 16.16193625200576 21.811655843973107 0 0 0
2358 444 2 0 11.088026144094464 17.12526959919366 17.159784572960085 0 1 0
591 444 3 0 7.653534662978298 24.787166630747002 16.6627489128591 1 0 0
455 444 2 0 7.314185086309074 21.28753270709943 17.73063314207438 1 0 0
527 444 2 0 7.330018761814865 16.650158293279624 23.296509544546275 1 0 0
2368 444 2 0 10.171364705150449 17.07518750671299 22.54199258150895 0 1 0
573 444 1 0 14.63646743781175 19.074950121469463 25.058152177063086 0 0 0
482 444 1 0 13.58849367344836 23.657520662864115 17.43299096036504 0 0 0
490 444 1 0 13.848720736459402 23.417985920217124 18.795293028029995 0 0 0
481 444 1 0 12.237617591757648 24.176818483963185 17.024483477280114 0 0 0
492 444 1 0 15.41091203521194 22.808224648351004 20.656620222742227 0 0 0
2371 444 2 0 13.465144550666034 16.58051438446394 23.28236321425968 0 0 0
651 444 4 0 14.073628360423506 23.073494754181347 23.52288487741573 0 0 0
2372 444 2 0 11.833997568154674 16.378798572851473 23.9763762762042 0 0 0
589 444 3 0 8.529304776401501 23.429815833658797 16.84932956036161 1 0 0
623 444 3 0 14.427429024310118 22.70718049848214 21.442652162797906 0 0 0
595 444 3 0 11.264506337578041 24.110465162635638 17.84845358515699 0 0 0
491 444 2 0 13.06351468951753 23.599475394606202 19.535753223614428 0 0 0
2360 444 1 0 10.839676723427642 16.563208789015626 19.24166167005847 0 1 0
2363 444 1 0 10.696816532416648 16.77174071218913 21.650133592549224 0 1 0
454 444 1 0 7.71660312856496 20.68520728318027 16.926034110869107 1 0 0
2364 444 2 0 9.212757363980387 17.40390087748845 20.369919226808996 0 1 0
453 444 1 0 7.318864325815557 19.336177483286733 16.943343372304867 1 0 0
641 444 3 0 12.033485968743957 23.250151980542867 23.504228990169636 0 0 0
877 444 2 0 11.77467631694381 24.11711676792907 23.16027053435203 0 0 0
878 444 2 0 11.459052418304188 22.518839709136795 23.689522415419326 0 0 0
621 444 3 0 14.251643039144177 21.38366074010021 24.824971219570482 0 0 0
2357 444 6 0 10.28663716896983 16.829598724888342 17.864403581582273 0 1 0
576 444 1 0 14.907594110320575 20.381752024961905 24.442927241406913 0 0 0
2359 444 2 0 9.597671214586729 17.695484214926235 17.937087303168504 0 1 0
483 444 1 0 14.596791195903046 23.438787231405946 16.487188301835126 0 0 0
489 444 1 0 15.126693706359426 23.035189945710716 19.224117202091872 0 0 0
989 444 1 0 14.367446720027399 7.326620208555791 19.17534286208421 0 1 0
520 444 2 0 6.7043685093381535 13.229614030394064 20.76560012047523 1 0 0
445 444 1 0 9.04606343727754 22.595151492360124 16.023984626906056 1 0 0
2424 444 1 0 13.75088564135099 9.886524109913235 27.98558405578049 1 0 0
2425 444 1 0 13.104175559648821 8.700753855301986 28.37619553730823 1 0 0
2423 444 2 0 13.760030745100178 11.52495073901476 26.57121551960459 1 0 0
2421 444 6 0 13.032025396261204 10.877879014049158 27.158371355109217 1 0 0
2420 444 5 0 12.195275708346292 11.774147385455421 27.985592638762178 1 0 0
2417 444 1 0 12.5093512059611 12.263891919686504 29.20987276403527 1 0 0
2418 444 2 0 13.333447361868764 11.919740457135948 29.81595960978407 1 0 0
2419 444 1 0 11.283921848061325 12.606760759696664 27.447962450356915 1 0 0
2447 444 2 0 10.888918363120299 12.579537563690995 26.441927255476728 0 0 0
2445 444 1 0 11.681297172824422 13.361058163216827 29.41532616595521 1 0 0
2446 444 2 0 11.718963085078974 14.015775699321189 30.25623247488969 1 0 0
2444 444 5 0 10.93185120746104 13.5795788001819 28.31300291343735 1 0 0
616 444 3 0 8.42981965797646 14.724533777479383 26.413089505045928 1 0 0
650 444 4 0 9.85293719194931 15.15272890703491 27.890114879666164 1 0 0
614 444 3 0 7.84340822287445 14.982507931508968 27.926440107950892 1 0 0
2422 444 2 0 12.372889683914515 10.405415863762489 26.383902751355453 1 0 0
80 444 2 0 11.050788096390228 9.579277929507736 32.73982595799198 1 0 0
79 444 1 0 10.050418369962628 9.695565290028027 33.09925422494102 1 0 0
77 444 1 0 9.214803408540611 10.56502055436618 32.4158168249949 1 0 0
78 444 2 0 9.606267459385373 11.167710762431911 31.59224910628744 1 0 0
75 444 1 0 7.896675457849284 10.831960313529612 32.858195578441496 1 0 0
2428 444 2 0 12.117443947491065 8.441056269360708 28.059268971475774 1 0 0
2448 444 2 0 14.855348215211668 7.677017338259979 33.079298669705466 1 0 0
2427 444 1 0 13.760463411101066 7.787386719041612 29.1694859170709 1 0 0
2431 444 1 0 15.063920224899851 8.036440781925673 29.621810858421536 0 0 0
74 444 1 0 7.4087266268344845 10.209514473674995 34.014304405463264 1 0 0
2426 444 1 0 15.036721333112515 10.156754851418535 28.493342840097675 0 0 0
81 444 1 0 9.542470642357491 9.062771366814925 34.25189612328255 1 0 0
568 444 2 0 13.867125215188782 15.610873099530082 26.74992614202184 0 0 0
76 444 2 0 7.313637365621054 11.507471883702511 32.30047039675853 1 0 0
1220 444 1 0 15.217075911637444 7.541606003158285 25.66169462793919 0 1 0
1178 444 2 0 15.671562685064158 13.710808794479206 27.318452380701288 0 0 0
2429 444 1 0 15.702832461601314 9.231256336104494 29.29411416703636 0 0 0
553 444 1 0 7.038022349296771 15.878589598540456 28.370233771548016 1 0 0
2430 444 2 0 15.535902786504003 11.10488489325467 28.24087171032774 0 0 0
1221 444 1 0 13.807427277891158 7.2541633436932065 25.628996184234367 0 1 0
872 444 2 0 7.805240890215424 20.20531462509881 26.758992785897558 1 0 0
885 444 2 0 10.5380517027816 22.981739638901725 28.90361257537623 0 0 0
575 444 2 0 12.607618171498535 19.639699153444827 25.71274821913625 0 0 0
754 444 2 0 12.627749814054564 19.08979505171571 34.130986271893335 0 0 0
2128 444 2 0 15.262655492702518 20.50439158936402 34.44317238273619 0 0 0
569 444 1 0 15.283455289200184 16.835150376219044 25.715393715150697 0 0 0
886 444 2 0 10.494733789588734 24.665850827756334 29.153423456598222 0 0 0
677 444 2 0 8.486982837250308 23.902773523456162 33.65471001072061 0 0 0
849 444 3 0 10.842094928692973 23.77628458770913 29.363125253759314 0 0 0
748 444 1 0 15.712640498531824 23.098536058915734 28.160605078801826 0 0 0
762 444 1 0 10.071095039611103 17.35950312161342 29.75877389666385 0 0 0
2438 444 1 0 14.473484584935111 6.797042663898531 32.593774545675906 0 0 0
758 444 2 0 10.816109715273853 15.845742500537293 31.90244488414908 0 0 0
620 444 3 0 9.717038459897124 16.15572680628803 29.70478706678981 0 0 0
2119 444 5 0 15.393000972157127 22.641938514095877 34.55680468672041 0 0 0
817 444 3 0 11.273715090858659 21.952557453421925 31.97129424750263 0 0 0
760 444 1 0 10.924917153530297 19.203602915367775 31.220541678142784 0 0 0
818 444 3 0 13.183957261616879 21.340361825381752 32.8440086850939 0 0 0
649 444 4 0 8.83638812749939 17.784643493245717 27.045484651196222 1 0 0
753 444 1 0 12.03438303163858 18.753567725280952 33.3053336758974 0 0 0
613 444 3 0 7.311787355485713 17.111979355015347 28.28382975771423 1 0 0
615 444 3 0 8.882188241820858 16.58544727367983 25.35988831447559 1 0 0
757 444 1 0 11.001419003728415 16.925738269459675 32.06320356913464 0 0 0
749 444 2 0 14.657801411690599 23.026132456138694 27.890506480442514 0 0 0
618 444 3 0 11.424459144113715 16.007472379685407 26.751101231035896 0 0 0
751 444 1 0 12.052007680212968 21.01444063819595 32.38186429331968 0 0 0
759 444 1 0 10.651112315403173 17.849939494990245 31.04422582417756 0 0 0
857 444 4 0 12.049574713763008 23.62960255259283 31.020623085913748 0 0 0
617 444 3 0 10.943379359015534 18.0872326493719 27.259558493840878 0 0 0
755 444 1 0 11.62809325369859 17.412567198351944 33.22681620984807 0 0 0
816 444 3 0 15.148719365937849 23.652595271618527 31.64386617623161 0 0 0
640 444 3 0 8.043419298351358 19.453126497165172 26.23444815755984 1 0 0
815 444 3 0 13.75115862874146 22.86831245494813 30.140071622538144 0 0 0
739 444 1 0 14.920552546783151 23.22948241703953 30.478300622008312 0 0 0
752 444 1 0 11.658508590220837 19.632604529514893 32.28979488870078 0 0 0
858 444 4 0 13.998313034390453 23.213998764284835 33.279700372633 0 0 0
565 444 1 0 11.750258833274293 17.226557194103638 26.755061226038563 0 0 0
820 444 3 0 12.357465498775484 24.022684848003994 34.300332461962356 0 0 0
819 444 3 0 10.88216916798908 23.242720345858995 32.858172794697296 0 0 0
756 444 2 0 11.940862411427377 16.69614192849224 33.94374480767513 0 0 0
678 444 1 0 11.153768298042111 23.716197307339907 34.017333308225076 0 0 0
574 444 1 0 13.393584706199672 18.87451600152823 25.69532776096413 0 0 0
619 444 3 0 10.121947092349991 18.08667624874232 28.7068306302208 0 0 0
566 444 1 0 13.093699812541328 17.590671972105397 26.272588881440683 0 0 0
761 444 2 0 10.688061950926837 19.944274232510324 30.46394274093531 0 0 0
567 444 1 0 14.043867725031802 16.61183701098882 26.27185137927676 0 0 0
2434 444 6 0 15.801279376052717 6.98046777515345 30.41001704045634 0 0 0
2432 444 2 0 13.232246057890748 6.85064967367593 29.46354507024026 1 0 0
627 444 3 0 15.09310102264289 22.756260460225963 25.420901077825306 0 0 0
8 444 2 0 6.841292658278713 14.940223300637332 34.62848932103232 1 0 -1
871 444 2 0 7.770972616298046 19.38270341503107 25.3492525931979 0 0 0
131 444 2 0 13.65910065897191 9.180556780557993 39.60420321495383 0 0 0
130 444 1 0 14.48572933226462 9.523507999445526 39.00802722987481 0 0 0
173 444 3 0 12.487891898275823 8.06582388693494 37.52417623562813 0 0 0
121 444 1 0 13.734807024346658 7.968907178623861 37.23382020606725 0 0 0
177 444 3 0 14.257155141097105 10.639233790499766 41.69244474797101 0 0 0
122 444 1 0 14.718650759038638 8.946638878972797 37.7666998294117 0 0 0
179 444 3 0 13.748289414082173 11.780102020746924 42.856962204620785 0 0 -1
47 444 2 0 11.777752592567895 13.491641545643075 42.67238088288579 0 0 -1
151 444 3 0 9.596031703342147 14.770317091825682 42.631945132281814 0 0 -1
199 444 4 0 7.44172368126469 14.712401082784455 42.6630067212601 1 0 -1
83 444 2 0 7.879783262022243 8.816551167050491 35.523172796013114 1 0 0
132 444 1 0 15.393910096681239 10.618449485676026 41.0923205001514 0 0 0
171 444 3 0 9.909224307946497 7.316414081787309 35.87279613938114 1 0 0
129 444 1 0 15.438577085857947 10.386720867448537 39.602902020525676 0 0 0
46 444 1 0 12.372108878681335 14.296666992817979 43.11618418660619 0 0 -1
432 444 2 0 7.031964052715179 12.0713223534568 43.36120873444541 0 0 -1
37 444 1 0 10.327211149414522 15.769738198776237 42.96447353107567 0 0 -1
38 444 1 0 11.72930617493149 15.541988655337956 43.335968244091504 0 0 -1
45 444 1 0 13.733146540452056 14.13277060931949 43.435185414055994 0 0 -1
48 444 1 0 14.349070558955312 12.77654071118586 43.37823665445994 0 0 -1
183 444 3 0 15.328950570605418 8.155199168532697 43.42555650772245 0 0 0
193 444 3 0 7.160718054489718 12.611039226104344 42.626350626732716 1 0 -1
207 444 4 0 14.031544713083553 9.74781354983141 43.5495177289031 0 0 -1
431 444 2 0 7.261710927670084 12.135926566102398 41.812146874500954 1 0 -1
2 444 1 0 7.298048144912585 15.628237190718405 38.44583828372765 1 0 -1
7 444 1 0 6.9664493888045405 15.11696091280366 35.699579424849226 1 0 -1
2118 444 1 0 15.707706320705782 21.392005700879693 34.888100916421664 0 0 0
670 444 2 0 7.319008587604975 24.403097889709855 37.79558315126472 0 0 0
84 444 1 0 10.438003090953263 8.099229461992879 35.02186152064424 1 0 0
2107 444 1 0 14.660729107165112 20.143213279407718 37.66493255518975 0 0 0
2111 444 1 0 15.772226060183026 19.405454990813638 37.17383101372009 0 0 0
174 444 3 0 14.094160079335008 7.0457800956768475 36.40823893767427 0 0 0
427 444 2 0 9.499587351317688 7.115836825760212 39.44883716267485 0 0 0
1 444 1 0 7.47027616683702 15.894205244455433 39.876698054304015 1 0 -1
123 444 1 0 15.902759382121326 9.270776068579734 37.074998720721524 0 0 0
82 444 1 0 8.23143641259758 9.309970834587345 34.685372206656666 1 0 0
433 444 2 0 11.60899713990841 8.887899479088132 42.86031371301911 0 0 -1
669 444 1 0 8.08562201710056 24.304189966192876 37.02435682457249 0 0 0
4 444 2 0 8.534800050140875 17.279707947568433 37.845657217734136 1 0 -1
2098 444 2 0 10.999888788368814 19.198061862677378 40.78219923239378 0 0 0
146 444 3 0 8.242367929603386 16.802210432897045 40.33464157114847 1 0 -1
672 444 2 0 9.679188136344097 24.17348397095232 38.45027685600547 0 0 0
2106 444 1 0 14.777487225167162 17.323831303999548 37.93267397148787 0 0 0
2544 444 2 0 9.839166650177186 20.16293850481024 43.14335250663933 0 0 -1
2102 444 2 0 12.78714659367866 16.29389534410569 39.36166382942987 0 0 0
671 444 1 0 9.448741771601098 24.143422212764946 37.38900922665713 0 0 0
1752 444 4 0 15.533252974102721 19.658938752134738 43.16046389426269 0 0 0
2105 444 1 0 13.595823690638047 19.459792347330744 38.2162871719041 0 0 0
2525 444 1 0 11.53367856438118 23.549102898742603 43.76721653148846 1 0 -1
200 444 4 0 8.02619880042185 17.688121570253692 42.20496066788395 1 0 -1
2523 444 1 0 9.178255985992768 24.094248192903688 43.71762690366748 0 0 -1
1595 444 1 0 14.125583601914103 23.96723971304806 38.99416535646937 0 0 0
2531 444 2 0 10.036564276482022 23.565366348957152 41.08145424727124 0 0 -1
2103 444 2 0 11.598927613121997 17.589895022630984 38.94662886432627 0 0 0
2534 444 1 0 9.192858213137328 20.490965851227116 42.33300668913577 0 0 -1
2539 444 2 0 7.994726810711414 22.394940729546633 40.012856889284976 1 0 -1
673 444 1 0 10.435206423238421 23.935621037659025 36.40250951341429 0 0 0
2101 444 6 0 12.623506051162007 17.39914585700406 39.30522576097577 0 0 0
2100 444 5 0 12.73413666204655 17.947078470056326 40.65970178411227 0 0 0
2127 444 2 0 14.784217687200508 17.43163422102218 40.98738496238492 0 0 0
675 444 1 0 10.090172022161708 23.8855803449548 35.04575881100341 0 0 0
2104 444 1 0 13.664537884019897 18.051242079311734 38.42112355458584 0 0 0
2532 444 2 0 11.150968642575192 22.28351917378713 41.599659353796014 1 0 -1
1732 444 3 0 15.374632769094427 21.433885225465694 42.13632748936904 0 0 0
2535 444 5 0 8.337831451693996 19.62241906996649 41.764289491133525 1 0 -1
2110 444 2 0 14.773689871302375 16.246691651937496 38.05692951122346 0 0 0
2527 444 1 0 10.284694261623041 23.422439346383456 43.158880321748924 1 0 -1
2528 444 2 0 8.199488956357769 24.037339435242465 43.18989115432183 0 0 -1
1597 444 1 0 14.494523434213459 22.993784763647692 39.91941695215685 0 0 0
2529 444 2 0 12.433071848030725 23.05783283884356 43.35563294845886 1 0 -1
2533 444 5 0 9.153389336553849 21.71020751761599 41.752024973960076 1 0 -1
2097 444 1 0 11.983840294973916 18.910131661429695 41.22960708893861 0 0 0
3 444 1 0 7.93491190050299 16.44005685047308 37.50306004395782 1 0 -1
2124 444 5 0 13.895824695799796 18.934516156539843 42.28883110523364 0 0 0
2536 444 1 0 7.725424415985041 20.339956255397578 40.79177603741317 1 0 -1
1598 444 2 0 13.761238133410073 22.27014876045683 40.24974680847781 0 0 0
2099 444 1 0 13.892732212424887 17.953168108538023 41.35418656385117 0 0 0
2125 444 1 0 12.683812654978098 19.501746718907732 42.22475806814526 0 0 0
1596 444 2 0 13.072873959913455 24.04485051341261 38.73925975121033 0 0 0
2538 444 1 0 8.207694433349745 21.625470337997598 40.7757425535745 1 0 -1
2530 444 6 0 10.182236979806147 22.728707315222454 41.82716050069895 1 0 -1
152 444 3 0 9.759894590255955 16.94544798951732 43.17041071047487 0 0 -1
674 444 2 0 11.467451342297611 23.730647202211493 36.70657015996214 0 0 0
2126 444 2 0 12.348062493349104 20.350092240803924 42.778374675061684 0 0 0
6 444 2 0 8.225745250689114 16.80265058260417 35.376650480038705 1 0 -1
5 444 1 0 7.758356736539994 16.20626929704213 36.11888276538001 1 0 -1
668 444 1 0 7.719152027140654 24.17715087787811 35.68599068701935 0 0 0
2112 444 2 0 14.632379015177548 21.225390204648086 37.55878802731112 0 0 0
1593 444 1 0 15.042689365175205 24.92936789136057 38.566106156144514 0 0 0
2108 444 2 0 12.770536146754086 20.012426796868688 38.60852951773329 0 0 0
2109 444 1 0 15.84640829968395 17.976290510193596 37.31506342634287 0 0 0
197 444 3 0 12.245585476973094 8.682637572139939 43.52639364525683 0 0 0
2537 444 2 0 7.072658703223798 19.919293522708532 40.079246741872765 1 0 -1
172 444 3 0 11.655333519673153 7.9733242750338675 34.69882901220389 1 0 0