LAMMPS data file via write_data, version 7 Feb 2024, timestep = 2761719, units = real

2544 atoms
6 atom types
2976 bonds
12 bond types
5712 angles
23 angle types
5952 dihedrals
5 dihedral types
3600 impropers
1 improper types

1.0999999999999999 49.30492899999999 xlo xhi
1.0999999999999999 49.283698999999984 ylo yhi
1.0999999999999999 49.56010899999998 zlo zhi
-0.054235 0.003807 -0.057864 xy xz yz

Masses

    1    12.010700000 # C_R
    2     1.007940000 # H_
    3    15.999400000 # O_2
    4    65.380000000 # Zn2f2
    5    14.006700000 # N_R
    6    12.010700000 # C_3

Bond Coeffs

    1      391.669513        1.458000  # C_R C_R
    2      714.557442        1.269010  # C_R O_2
    3      462.655054        1.379256  # C_R C_R
    4      357.440381        1.081418  # C_R H_
    5      111.058393        2.079698  # O_2 Zn2f2
    6      602.435128        0.966432  # O_2 H_
    7       19.441823        3.080101  # Zn2f2 Zn2f2
    8      140.566051        1.988323  # Zn2f2 N_R
    9      663.718927        1.345073  # C_R N_R
   10      529.724731        1.450075  # N_R C_3
   11      331.069389        1.109401  # C_3 H_
   12      369.943935        1.486000  # C_3 C_R

Angle Coeffs

    1              cosine/periodic      137.714246              -1               3 # C_R C_R O_2
    2              cosine/periodic      206.778426              -1               3 # O_2 C_R O_2
    3              cosine/periodic      102.183280              -1               3 # C_R C_R C_R
    4              cosine/periodic      111.297508              -1               3 # C_R C_R C_R
    5              cosine/periodic       57.289016              -1               3 # C_R C_R H_
    6              cosine/periodic       39.441082              -1               3 # C_R O_2 Zn2f2
    7              cosine/periodic       17.706467              -1               3 # Zn2f2 O_2 H_
    8              cosine/periodic       44.863234              -1               3 # H_ O_2 H_
    9              cosine/periodic       46.978550              -1               3 # O_2 Zn2f2 O_2
   10              cosine/periodic       13.328014              -1               3 # O_2 Zn2f2 Zn2f2
   11              cosine/periodic       55.506670              -1               3 # O_2 Zn2f2 N_R
   12              cosine/periodic       15.376901              -1               3 # Zn2f2 Zn2f2 N_R
   13              cosine/periodic       79.786967              -1               3 # H_ C_R N_R
   14              cosine/periodic      153.699352              -1               3 # N_R C_R C_R
   15              cosine/periodic      212.442573              -1               3 # N_R C_R N_R
   16              cosine/periodic      120.000516              -1               3 # C_R N_R C_R
   17              cosine/periodic      106.782348              -1               3 # C_R N_R C_3
   18                      fourier      170.007371        0.343737        0.374972        0.281246 # N_R C_3 H_
   19                      fourier      312.548166        0.343737        0.374972        0.281246 # N_R C_3 C_R
   20                      fourier       75.498766        0.343737        0.374972        0.281246 # H_ C_3 H_
   21                      fourier      121.777217        0.343737        0.374972        0.281246 # H_ C_3 C_R
   22              cosine/periodic       99.137149              -1               3 # C_3 C_R C_R
   23              cosine/periodic       41.111398              -1               3 # Zn2f2 N_R C_R

Dihedral Coeffs

    1        1.250000              -1               2 # O_2 C_R C_R C_R
    2        6.737110              -1               2 # C_R C_R O_2 Zn2f2
    3        3.368555              -1               2 # C_R C_R C_R H_
    4        0.166667               1               3 # C_R N_R C_3 H_
    5        0.833333              -1               2 # N_R C_3 C_R C_R

Improper Coeffs

    1        2.000000        1.000000       -1.000000        0.000000               0 # C_R C_R O_2 O_2

Pair Coeffs

    1        0.105000        3.430851 # C_R C_R
    2        0.044000        2.571134 # H_ H_
    3        0.060000        3.118146 # O_2 O_2
    4        0.124000        2.461553 # Zn2f2 Zn2f2
    5        0.069000        3.260689 # N_R N_R
    6        0.105000        3.430851 # C_3 C_3

Atoms # full

26 444 1 0 3.7623083140304843 7.850602212757111 8.136210023608042 0 0 0
31 444 1 0 6.200437814901553 7.296030725322068 9.434521212886736 0 0 0
33 444 1 0 5.6151709464102755 6.332282824450186 8.582301728610013 0 0 0
34 444 1 0 4.390974804066361 6.60869197008545 7.961253603873877 0 0 0
35 444 2 0 3.9267924071339086 5.880442575944393 7.292911171168149 0 0 0
142 444 1 0 9.21534485089265 5.996038635093797 4.048020578175769 0 0 0
143 444 2 0 8.60904063182625 5.207860662063526 3.541519060669123 0 0 0
141 444 1 0 9.459081421416515 5.981245194781469 5.436234857448887 0 0 0
420 444 4 0 8.847836041676713 3.292596430279298 8.612950083217564 0 1 0
32 444 2 0 7.196500670534637 7.186109051248591 9.845826933536967 0 0 0
139 444 1 0 10.289171608188477 7.036412729167709 6.000784045889166 0 0 0
144 444 1 0 8.953733904924086 4.876538269176489 6.265557688401913 0 0 0
140 444 2 0 10.485570843762503 7.1234265860211545 7.048809184943966 0 0 0
134 444 1 0 9.621931309705069 7.1059282591374515 3.279439627843569 0 0 0
398 444 3 0 8.85842513299039 5.037345883862258 7.527358608842952 0 0 0
397 444 3 0 8.461398816328225 3.8572928973332186 5.767494502826311 0 0 0
36 444 1 0 6.336500832778198 5.080970021683285 8.239580915171675 0 0 0
396 444 3 0 7.584133978055068 5.036141606789505 8.50835636543365 0 0 0
395 444 3 0 5.776293034498209 4.112799458512954 7.66084355298556 0 0 0
419 444 4 0 6.872729523614823 2.684123987852253 6.584012148950391 0 1 0
2381 444 1 0 11.422186912609297 4.521993641083089 9.605787586979588 0 0 0
408 444 3 0 5.847857275096234 2.4886136989187264 4.864623784948431 0 1 0
2380 444 5 0 10.535355763785937 3.4918430583226066 9.657161631222829 0 1 0
25 444 1 0 2.563713037946488 8.237139887651454 7.3565953404733735 0 0 0
2382 444 2 0 11.275917063167416 5.405012932530707 8.996809855187191 0 0 0
402 444 3 0 7.3589418224303 2.524820406913134 9.829608355747844 0 1 0
2355 444 1 0 11.097833791775749 2.5978606617103255 10.49168151378331 0 1 0
430 444 2 0 4.914535013081514 2.7342270846311765 4.889684001448728 0 1 0
149 444 3 0 1.809247509533441 7.359420863835601 6.806110402658129 0 0 0
400 444 3 0 9.538281473218372 1.6813807301285335 7.44107656687342 0 1 0
429 444 2 0 6.255580930962448 2.3043366280608906 4.010047647654454 0 0 0
330 444 1 0 6.584607871647753 1.6131619157384138 9.418976754632684 0 1 0
137 444 1 0 10.776910099511712 8.06395364137095 5.1774327065070995 0 0 0
135 444 1 0 10.378279796537077 8.137377339216576 3.852839834874038 0 0 0
2383 444 2 0 10.705112305140357 1.57802879406074 10.680815323048208 0 1 0
2356 444 5 0 12.2664772140499 3.046945296717044 10.990634719198347 0 1 0
29 444 1 0 5.578236999309786 8.504220965844954 9.661825278561198 0 0 0
133 444 1 0 9.193721051901965 7.252457049656213 1.8563283202334424 0 0 0
2353 444 1 0 12.455725095038154 4.244398960729781 10.444393717854293 0 1 0
401 444 3 0 6.528071866125467 1.3363017738013125 8.165038663808541 0 1 0
181 444 3 0 8.451157578033719 6.347865612369624 1.3369028711573427 0 0 0
27 444 1 0 4.34155057048236 8.782876266194608 9.03008514235245 0 0 0
2088 444 1 0 7.8194635862901025 23.820281615221724 13.049214707832187 0 0 0
432 444 2 0 1.4275269063330942 6.0264740750987436 3.0738044530050583 0 0 0
136 444 2 0 10.745648090842417 8.982310600109495 3.3043722159587237 0 0 0
47 444 2 0 4.221533828349414 8.744969423473615 2.3554408536586813 0 0 0
151 444 3 0 2.445803013744987 8.627321554470209 4.169904856924928 0 0 0
2077 444 1 0 12.162070007900018 24.846286181036678 11.72244443931651 0 0 0
2358 444 2 0 12.900830644131743 1.3041132340620651 11.877589565762978 0 1 0
182 444 3 0 9.362855373424903 8.407543506606778 1.2455349779749012 0 0 0
48 444 1 0 6.7193264842437355 9.119070470813005 1.262829090181998 0 0 0
326 444 2 0 7.20896497770826 1.3627082097208274 12.099520320178106 0 1 0
138 444 2 0 11.300765253404528 8.904138842886306 5.6109264694234895 0 0 0
30 444 2 0 6.022543703413217 9.273677934400734 10.301256007643893 0 0 0
46 444 1 0 4.850291399602095 9.50930756363195 2.8820541668713373 0 0 0
40 444 2 0 4.8437744903203495 11.573602071484169 5.570118370042012 0 0 0
38 444 1 0 4.386510146926844 10.051127219668336 4.095435675063753 0 0 0
28 444 2 0 3.8958047922297974 9.764826791753519 9.213834717086167 0 0 0
150 444 3 0 2.301615168463476 9.471602209951081 7.1380381500036165 0 0 0
45 444 1 0 6.101783748021202 9.86134233400242 2.3500468617565735 0 0 0
37 444 1 0 3.051054752930395 9.661839433891204 4.62809543015414 0 0 0
43 444 1 0 6.832235672443079 10.89243942095275 2.984703409985324 0 0 0
41 444 1 0 6.32117729180186 11.51067638874423 4.10729561899381 0 0 0
39 444 1 0 5.156315578875775 11.058218320324327 4.709451820403477 0 0 0
42 444 2 0 6.864927901461399 12.382127307438935 4.524508914143418 0 0 0
152 444 3 0 2.558365457409862 10.31246924276005 5.62293027523978 0 0 0
44 444 2 0 7.779627970417263 11.277749695822711 2.6271998451100975 0 0 0
2537 444 2 0 2.0120309701601045 13.1052596889295 7.623455111322451 1 0 0
2272 444 2 0 11.124954396008961 13.292823747470193 1.1427661525415296 0 0 1
2268 444 2 0 12.57999458813795 12.931140425303793 3.1347093556156995 0 0 1
2091 444 2 0 8.981367074494273 23.29270921931875 11.235821315348764 0 0 0
474 444 2 0 3.694463750754701 19.57194438482746 12.925019589468064 0 0 0
2090 444 1 0 8.719471082804933 24.015711724848398 12.044646335328949 0 0 0
2081 444 2 0 11.773385201432484 23.93010142598781 11.212027353979753 0 0 0
2265 444 1 0 13.002172118899068 12.977371055787993 2.1724597246566284 0 0 1
2357 444 6 0 13.063979876329446 2.3700977983825053 12.001206507559568 0 1 0
2372 444 2 0 10.176488565222119 4.017888125519507 17.293234673370588 0 0 0
2365 444 1 0 11.21232552929681 2.5413004303723206 15.34974367423705 0 0 0
2367 444 1 0 11.788958194502039 3.7377661786474086 15.901322686834817 0 0 0
2370 444 6 0 11.295965069075251 4.204579585174392 17.248121021125836 0 0 0
2373 444 5 0 11.965495450015343 3.4139474035870565 18.294994249024825 0 0 0
2371 444 2 0 11.528134079345564 5.269735088141711 17.45184880938977 0 0 0
2362 444 1 0 11.62950797104123 2.086649928193984 14.095293371843663 0 0 0
2378 444 1 0 11.49550119022033 2.325061736947849 18.937224858427154 0 0 0
2369 444 2 0 10.41064456328983 2.0716792023798907 15.899240020855904 0 0 0
2379 444 2 0 10.47589576651746 1.9962811806876377 18.919204970858623 0 0 0
2376 444 1 0 12.542279148887008 1.8059431489705176 19.711720841788832 0 1 0
2360 444 1 0 12.619051377786487 2.8078837368308363 13.381407297783731 0 1 0
2366 444 2 0 11.167609217706485 1.2050023425248193 13.627925160700473 0 0 0
596 444 3 0 1.2886244278832868 17.199809564040123 17.88284401864393 0 0 0
2363 444 1 0 12.827710593187895 4.3668947089219 15.253919768958571 0 1 0
595 444 3 0 1.170227919413 17.95013923835661 19.99911479718362 0 0 0
1971 444 1 0 10.452566503362704 15.655247792579297 23.37105139066496 0 0 0
484 444 2 0 2.96100777711895 15.274210229720863 17.77008068263884 0 0 0
486 444 2 0 5.34919183445827 14.686100672886933 17.840909629491183 0 0 0
483 444 1 0 3.6356591192383947 15.722940180689907 18.547471668864468 0 0 0
485 444 1 0 5.004323613220098 15.370820379483497 18.605988939879083 0 0 0
1969 444 1 0 11.243223605527794 15.175643251853725 21.428103424411113 0 0 0
1972 444 5 0 11.301085338245558 14.838094819074485 22.748295274712 0 0 0
1970 444 2 0 11.76544640685606 14.654143428852475 20.63413816255282 0 0 0
488 444 2 0 6.829267486549707 15.53182658044389 19.669520212069923 0 0 0
1996 444 5 0 9.934370584828043 16.56432923867691 22.540562608247956 0 0 0
487 444 1 0 5.821600736334417 15.908464512778183 19.589747351916774 0 0 0
1975 444 2 0 11.95373362428849 12.85590574711514 22.598028235904128 0 0 0
1973 444 6 0 12.020908641721118 13.699931880958975 23.32038361631441 0 0 0
1997 444 1 0 10.379043955005423 16.2538556492545 21.288729817272575 0 0 0
482 444 1 0 3.1244045120443387 16.70370151987471 19.37579479464589 0 0 0
1999 444 2 0 10.259430431163352 15.687205564801381 24.44703411348291 0 0 0
489 444 1 0 5.29304555950597 16.87674889242867 20.46602526165555 0 0 0
1998 444 2 0 10.024088374266467 16.678830703631032 20.33445858154273 0 0 0
490 444 1 0 3.9202325592123497 17.23345856209928 20.377354372385366 0 0 0
481 444 1 0 1.7865417121968137 17.29693206068185 19.08314972174019 0 0 0
1974 444 2 0 11.540473510532669 13.406325345571318 24.273553502820416 0 0 0
651 444 4 0 6.40218558466318 19.859228589919567 23.328685281801874 0 0 0
622 444 3 0 7.791409854476129 17.447011557849212 24.58932922602073 0 0 0
624 444 3 0 7.420954632138481 17.75182689443263 21.240471841963178 0 0 0
492 444 1 0 6.180222917966561 17.593857405081213 21.436058841728414 0 0 0
586 444 1 0 8.251253655231054 22.803902710192137 19.865453332234413 0 0 0
875 444 2 0 1.6286715269649883 21.10177577681404 20.836728298229122 1 0 0
652 444 4 0 8.715435971880167 18.0840706900354 22.778100122757984 0 0 0
476 444 2 0 4.800364047078808 21.62665787085815 13.451689907320661 0 0 0
877 444 2 0 4.0919519898567875 20.991518192615477 22.55041146033419 0 0 0
472 444 2 0 1.864335717021111 18.68984915475087 14.31781476189632 0 0 0
579 444 1 0 10.43436159252686 21.806572846100096 20.01115071759434 0 0 0
473 444 1 0 3.4023398788972017 20.103577257716655 13.814361747812276 0 0 0
578 444 1 0 9.133450212693024 21.888687583465398 20.482099849126023 0 0 0
745 444 1 0 11.432785124674508 21.272908885988677 25.204121902520864 0 0 0
625 444 3 0 7.436636191924501 21.084492299239017 21.940417376822314 0 0 0
2087 444 5 0 7.6139111009577345 24.959783040895527 13.734705086416326 0 0 0
583 444 1 0 10.003692898142674 23.490654034163743 18.32875390548139 0 0 0
491 444 2 0 3.539944942424892 18.00877346572665 20.96155664402791 0 0 0
479 444 2 0 2.466455990175033 21.83129197030526 17.148503122314295 0 0 0
581 444 1 0 10.894397992977003 22.66874892259335 18.980759369624497 0 0 0
469 444 1 0 1.1570271620464636 19.533469339976676 16.79032624283656 0 0 0
582 444 2 0 11.91393833694763 22.58677401343839 18.656965493311258 0 0 0
580 444 2 0 11.114962459106893 21.045030576570706 20.40343891077631 0 0 0
585 444 1 0 8.659406579057306 23.562948930247114 18.74099468422731 0 0 0
587 444 2 0 7.2061075227994165 22.81446568178381 20.165410567816313 0 0 0
470 444 1 0 2.095145904765227 20.186152499680492 15.819779764312942 0 0 0
841 444 3 0 6.731185022579765 24.937996610514364 18.54302663991691 0 0 0
626 444 3 0 9.383452769965634 19.975927701601602 21.947814452415223 0 0 0
471 444 1 0 2.410902784085451 19.58122239917749 14.622756301248025 0 0 0
478 444 1 0 2.745339260542507 21.360927586775453 16.197407652430677 0 0 0
746 444 2 0 11.909350914554762 20.512777269508486 24.548019402492216 0 0 0
627 444 3 0 7.870447445946444 20.39888782805854 24.806167109176535 0 0 0
480 444 1 0 4.347895352397248 23.219962784973173 15.694530985484185 0 0 0
577 444 1 0 8.626579285891287 20.932892651548034 21.50491093583756 0 0 0
839 444 3 0 4.46306413349443 23.541347892055747 16.909938567411643 0 0 0
584 444 2 0 10.370437980120117 24.05296984754487 17.47716301590092 0 0 0
878 444 2 0 4.241810459241296 21.22232780506981 24.264941490170127 0 0 0
842 444 3 0 7.610904277557077 24.240406093056674 16.690204108811052 0 0 0
588 444 1 0 7.631763691053473 24.259460494202337 17.955810496330614 0 0 0
628 444 3 0 9.638143594116896 19.72162416704272 23.648505869371128 0 0 0
477 444 1 0 3.6958646055224262 21.943893096391744 15.33577231729575 0 0 0
641 444 3 0 4.594255094759961 20.87765369805243 23.394965682568973 0 0 0
475 444 1 0 4.038811306847906 21.27375554077998 14.145694156105218 0 0 0
840 444 3 0 4.866433003437806 23.979844880921156 14.791309277230072 0 0 0
623 444 3 0 5.6238804531038955 18.145520562869287 22.43245153274966 0 0 0
750 444 1 0 9.150513184371281 20.40848424788165 24.640374058713867 0 0 0
873 444 2 0 2.643449199201326 24.916496893177744 19.24204790295165 0 0 0
2089 444 2 0 7.284878464786449 22.879572213253446 13.238387701399297 0 0 0
621 444 3 0 6.761353205477732 19.257548750587006 25.27915834460766 0 0 0
2436 444 2 0 2.125128332198879 6.808236600931708 35.71710533521967 0 0 0
2434 444 6 0 1.526395697481044 7.772281997767396 35.84755854829693 0 0 0
815 444 3 0 8.442847179006327 23.764903711287115 28.424380401529604 0 0 0
2431 444 1 0 2.3161880276193108 8.963732399206942 35.372461868753334 0 0 0
2433 444 2 0 4.112795199304431 8.40308136036022 36.469153393907895 0 0 0
858 444 4 0 9.988063782729968 25.07634742854872 31.022243219361616 0 0 0
818 444 3 0 9.050799269251984 23.443470252763735 31.554680110204536 0 0 0
2429 444 1 0 3.665984871291422 9.099300689710102 35.772714372711874 0 0 0
2430 444 2 0 5.4006097328101275 10.375942244812725 35.73260335964012 0 0 0
2418 444 2 0 3.5001236352481984 13.833009524310885 36.214675138077425 1 0 0
2423 444 2 0 5.574360504605799 12.405833737592946 34.578912859357445 1 0 0
2424 444 1 0 3.8231126467668277 11.152307616840197 34.492092345515765 1 0 0
2420 444 5 0 3.9253820809578936 13.633830971905454 34.10856168044469 1 0 0
2422 444 2 0 4.898186751804115 12.14287360381945 32.92210146322122 1 0 0
568 444 2 0 5.747446473012549 15.274858705245572 29.91663434598854 0 0 0
569 444 1 0 6.960096930571334 15.360376836342112 28.172644898693743 0 0 0
570 444 2 0 7.395485850933296 14.389594181810754 28.31970451881802 0 0 0
571 444 1 0 7.397351083327543 16.105009753788927 27.06822079739776 0 0 0
567 444 1 0 6.047139090883795 15.900077876131256 29.08633731419212 0 0 0
2419 444 1 0 3.854103918005098 14.54913022670811 33.139479868768646 1 0 0
2421 444 6 0 4.623458630804242 12.344856149850372 34.00350255066701 1 0 0
2417 444 1 0 3.4451907631658196 14.251506112258859 35.213958034493 1 0 0
2447 444 2 0 4.121371163824512 14.39698180624626 32.11046912778523 0 0 0
2426 444 1 0 4.39088666898177 10.202176348521528 35.35846126283123 0 0 0
2445 444 1 0 3.040807104465159 15.507167537659434 34.897572875457435 1 0 0
2444 444 5 0 3.319169183227314 15.688940590258493 33.590517452379984 1 0 0
2446 444 2 0 2.6629695525109 16.264352310312645 35.51282101584669 1 0 0
572 444 2 0 7.980023054726557 15.574100203299835 26.357894252603735 0 0 0
618 444 3 0 3.7431634712563735 16.816672635591164 30.486626661082827 0 0 0
2425 444 1 0 2.468747932380519 10.99557583594373 34.07433881944227 1 0 0
2428 444 2 0 1.9827217774561012 11.766680732284037 33.496674437820126 1 0 0
2427 444 1 0 1.7482341492219395 9.881633666949048 34.50512779615062 1 0 0
566 444 1 0 5.533239093570497 17.185499591668556 28.892497753062983 0 0 0
573 444 1 0 6.855136672351357 17.39574884325217 26.82445856440441 0 0 0
2437 444 5 0 1.186922057725823 7.957098375664696 37.2669582312823 0 0 0
762 444 1 0 4.47553675293178 19.587177321726784 32.47916515710615 0 0 0
757 444 1 0 6.563136366813591 19.837013370316875 33.969673841649126 0 0 0
650 444 4 0 2.859684124951343 17.259117985244057 32.36911966028625 1 0 0
613 444 3 0 1.4349122577796432 20.322668366180633 32.046595193245295 1 0 0
857 444 4 0 7.276668961008555 25.071146281236455 29.46984884598026 0 0 0
739 444 1 0 9.741756082438286 23.75940254693829 28.282978385265842 0 0 0
871 444 2 0 2.142226503292985 20.68487131629963 27.906985900397657 0 0 0
742 444 2 0 12.381360676024064 23.592121166266956 27.494547743070598 0 0 0
743 444 1 0 12.24622120158837 22.108957558296698 25.977157461920523 0 0 0
2120 444 1 0 12.876359327017662 24.56901062909237 31.760044242261774 0 0 0
614 444 3 0 1.2288784626586378 18.396751114766904 33.09215188516743 1 0 0
2107 444 1 0 13.047388072725992 23.24033569746771 36.43871296362805 0 0 0
753 444 1 0 8.13593996298732 21.679904206124917 33.60679324781908 0 0 0
747 444 1 0 10.061168780835336 21.263911342355392 25.46789792405213 0 0 0
617 444 3 0 4.154242288584618 18.903276733708008 29.849571199025185 0 0 0
565 444 1 0 4.412946678175834 17.643819335724764 29.769549574892107 0 0 0
755 444 1 0 7.756767332310383 20.527227125630922 34.32528386374855 0 0 0
761 444 2 0 5.460336076793407 21.880902174889957 31.44581308558166 0 0 0
619 444 3 0 4.052182793106479 19.751780006802832 31.263937545559916 0 0 0
740 444 1 0 10.323280865891077 22.92351208454311 27.21414310311258 0 0 0
575 444 2 0 5.465680799315576 18.880616333996556 27.491702994665054 0 0 0
576 444 1 0 7.126225249225172 18.045186359253353 25.51494250938468 0 0 0
756 444 2 0 8.33060973257961 20.1800772887682 35.172535255755776 0 0 0
886 444 2 0 4.773965421149628 24.070558732394435 28.645424991534256 0 0 0
574 444 1 0 5.961755431589783 17.938576459376325 27.754057299410917 0 0 0
752 444 1 0 7.332597367085298 22.12591600947389 32.53472836911488 0 0 0
2112 444 2 0 11.968764992665566 23.346275350952624 36.27220191742064 0 0 0
760 444 1 0 6.105482268690824 21.529982774732016 32.27074321967989 0 0 0
759 444 1 0 5.737785866358102 20.336166265805353 32.943930381308675 0 0 0
754 444 2 0 9.01160357011601 22.200349780585622 33.9542204427401 0 0 0
649 444 4 0 2.168054780076028 19.449742099506018 30.38428671572045 1 0 0
849 444 3 0 5.406234671326325 24.788898876338326 28.476574638295176 0 0 0
758 444 2 0 6.196589726149631 18.98161502949027 34.577336115778024 0 0 0
751 444 1 0 7.824869753613533 23.28215460561635 31.748683697593126 0 0 0
817 444 3 0 6.961625430312658 24.03073770248422 31.19128961450937 0 0 0
741 444 1 0 11.720829170519274 22.977819109702665 26.958635602534102 0 0 0
749 444 2 0 8.445289735106211 22.06580421095475 26.63819667966248 0 0 0
816 444 3 0 10.493214476462695 24.46374774627722 29.037732549181527 0 0 0
748 444 1 0 9.504777462262819 22.06876276817132 26.43466679990133 0 0 0
640 444 3 0 1.7387790495345872 20.715382288806314 28.797128460186915 1 0 0
620 444 3 0 3.9703320703034484 18.71025480002816 33.25643283869951 0 0 0
2119 444 5 0 11.634098284610927 24.959470416082805 32.14369225291018 0 0 0
2117 444 5 0 12.994329631035445 25.016112537845665 33.92997466247402 0 0 0
2121 444 2 0 13.118659322298932 24.17715267033416 30.767840129443577 0 0 0
2108 444 2 0 12.719009436245381 21.36007441109653 37.387042158184535 0 0 0
1980 444 2 0 12.902589367280616 15.281018096421167 25.36334387351506 0 0 0
302 444 2 0 11.932799258742094 5.536953974815084 45.91235678336752 0 0 0
296 444 1 0 9.843856437494953 2.606126216594104 44.50201149662107 0 0 0
297 444 1 0 11.23825124778203 2.66098401639145 44.34258636295092 0 0 0
301 444 1 0 11.328662132684963 4.7559427174544835 45.52034734837777 0 0 0
303 444 1 0 9.92060593785476 4.768878676299453 45.627035809305575 0 0 0
304 444 1 0 9.187584239419463 3.6616079779209914 45.145496198144954 0 0 0
305 444 2 0 8.110200793174808 3.646747126804917 45.29006720845443 0 0 0
308 444 1 0 5.827499961497979 2.0078679786752844 41.06533086045378 0 0 0
309 444 1 0 6.316219415508727 2.313056086104248 39.80673671131007 0 0 0
311 444 1 0 5.750422969444954 3.339165441255651 39.01824285467122 0 0 0
316 444 1 0 4.72051175399106 2.7439580580972445 41.51367459916278 0 0 0
317 444 2 0 4.306143084119134 2.492210454430116 42.497766467867834 0 0 0
184 444 3 0 9.812282908900022 6.7568087119774685 46.996376401735404 0 0 0
131 444 2 0 3.988812624707803 7.258509929570074 45.673049206763004 0 0 0
306 444 1 0 9.20268583387636 5.847404240921816 46.361248336005076 0 0 0
183 444 3 0 7.936416627788848 5.8543875211121446 46.420839699856565 0 0 0
299 444 1 0 11.970699045152074 3.705113501881632 44.846434098005076 0 0 0
298 444 2 0 11.745380018129389 1.8937988456128 43.79389633459128 0 0 0
207 444 4 0 7.065561709723038 6.393874900840829 48.223035271069904 0 0 -1
177 444 3 0 5.67234043637532 7.828811002616753 47.55490871748564 0 0 0
313 444 1 0 4.660901303002711 4.066822727311837 39.49740538219414 0 0 0
315 444 1 0 4.120387366753127 3.7426488770476096 40.76032116759241 0 0 0
314 444 2 0 4.227972169075626 4.846816538433302 38.85646910541461 0 0 0
318 444 1 0 2.9730378067010155 4.457863894921908 41.33086464591351 0 0 0
176 444 3 0 2.774233477611994 5.680800724623419 41.01774633972632 0 0 0
197 444 3 0 5.810475523859468 4.718862148331272 48.55026686343969 0 0 0
179 444 3 0 6.086210180940024 8.106321421679594 49.17321965992923 0 0 -1
295 444 1 0 9.100496511099806 1.4041288469848574 44.04519211245218 0 0 0
371 444 3 0 7.807046274432171 1.364328136275942 44.18053760166596 0 0 0
130 444 1 0 3.9316948477413085 8.30150130560128 45.309989406764714 0 0 0
1656 444 2 0 13.059819672115333 24.88143464564791 47.32374688097099 0 0 0
2334 444 2 0 11.427097202255059 2.5299009122477867 37.54681295109674 0 0 0
121 444 1 0 2.163520831827407 7.7300332062596375 43.71816371289179 0 0 0
174 444 3 0 1.4440494046577357 8.075836326067066 42.718794331488006 0 0 0
173 444 3 0 2.252300566855046 6.515764435900395 44.07739508505934 0 0 0
175 444 3 0 2.210764466368175 3.8786169509482233 42.148941108829334 0 0 0
208 444 4 0 8.987431534461258 8.606262481543604 47.617900953462495 0 0 -1
312 444 2 0 6.191916214916682 3.625637207121149 38.06946125190689 0 0 0
132 444 1 0 5.979913512966414 8.692953160879874 46.644179218006116 0 0 0
122 444 1 0 3.0263557064428066 8.714812565392332 44.35274381835252 0 0 0
2448 444 2 0 2.3204811650113317 6.456122583951824 38.28063578600973 1 0 0
310 444 2 0 7.21398992659749 1.8096359259083052 39.41360245632438 0 0 0
300 444 2 0 13.04654363187276 3.6878867576344794 44.724718544317064 0 0 0
178 444 3 0 7.216493691432299 9.076416957150888 46.54196753150174 0 0 0
2330 444 1 0 12.434639764241055 2.1669639438708512 37.74892845637644 0 0 0
205 444 4 0 1.111657243314839 4.872032940676293 43.59025854309329 1 0 0
428 444 2 0 2.491883372010637 3.1649250843725207 45.17006351785042 1 0 0
129 444 1 0 4.949801216310656 9.19653540821793 45.72609400113505 0 0 0
433 444 2 0 6.116791309359403 3.9568240167062774 49.10261379840243 0 0 -1
2275 444 2 0 11.03297830448761 13.87980198452482 47.20370347147718 0 0 0
2279 444 5 0 10.259436875128625 9.94305783626183 46.89962087259707 0 0 -1
2281 444 2 0 11.577040719551848 8.834804260914689 45.613062754811935 0 0 -1
127 444 1 0 5.024260255009781 10.484009767749015 45.20032959527073 0 0 0
2278 444 1 0 10.368848949253453 11.218604769610128 47.31605510269809 0 0 0
2271 444 1 0 12.778498706158292 13.182256222894834 48.22256775435591 0 0 0
123 444 1 0 3.0935826153558983 10.036232255209542 43.83157607199949 0 0 0
2280 444 1 0 11.256742435585938 9.765860701338445 45.98424085462252 0 0 -1
128 444 2 0 5.795477732133232 11.139724832676468 45.53285438779811 0 0 0
124 444 2 0 2.427900692444877 10.469768817097883 43.09082965261388 0 0 0
125 444 1 0 4.082562779316534 10.907626862196054 44.26865855232837 0 0 0
2276 444 2 0 12.455332424398634 13.601235318840622 46.12938085659541 0 0 -1
2283 444 2 0 12.826068175501243 11.067115893121372 45.213931276593655 0 0 -1
2288 444 2 0 9.674701219626861 11.677829877113155 47.96494718337948 0 0 0
126 444 2 0 4.177045180522974 11.914160877812018 43.8748047952485 0 0 0
180 444 3 0 7.963556013948362 9.274758616927102 49.43520648053071 0 0 -1
2277 444 5 0 11.423592180431845 11.84656083630526 46.70544581429757 0 0 -1
2274 444 6 0 11.886609512527627 13.199933209039417 46.98253547491782 0 0 0
2282 444 1 0 11.99477030157619 10.897595673069409 45.91384402620117 0 0 -1
2438 444 1 0 1.5442010415356557 7.204063812183757 38.32891483514075 0 0 0
196 444 3 0 1.6516557353220545 3.651917837909445 45.20397043912188 1 0 0
434 444 2 0 4.865190252281885 4.713246480833093 48.255419612564296 0 0 0
373 444 3 0 6.535823277129636 1.2230227205918756 43.17418365436219 0 0 0
2267 444 1 0 12.212582739554941 13.065739983292001 49.49898582624439 0 0 0
2075 444 1 0 11.883825363188976 27.140719961980516 12.473622373955418 0 0 0
2083 444 2 0 9.684038185322883 27.006001709052928 11.038540975995549 0 0 0
2080 444 2 0 11.296882459431567 28.040973280990098 12.575676623221886 0 0 0
2243 444 2 0 10.777472489239049 31.784668395774773 2.891053823474491 0 0 1
2242 444 6 0 10.928841953103618 32.68707315380025 2.2967843771035827 0 0 0
2079 444 1 0 11.381726350480328 25.975276025101145 11.80638309383073 0 0 0
2244 444 2 0 10.030979794833522 32.79370481549181 1.6354027433639722 0 0 0
2082 444 6 0 10.007814921694514 25.978775623594714 11.198383281669807 0 0 0
2245 444 5 0 12.152825297485084 32.475367501295864 1.5001680923332699 0 0 0
2086 444 1 0 8.371284022307428 25.851898033080822 13.06639802015309 0 0 0
2225 444 1 0 12.186502189259425 39.1010336614632 4.153388193432567 0 0 1
2235 444 1 0 12.178630906818976 34.197437763889205 3.9093389825706204 0 0 1
2241 444 2 0 8.995437132415374 34.58442460221232 2.6926911851313857 0 0 0
2232 444 1 0 11.12923541897758 36.207440002676876 4.818831077221082 0 0 1
2237 444 1 0 9.927131260152507 34.80442697161874 3.2282511536674514 0 0 0
290 444 2 0 3.385804535292536 40.05708198776825 8.608224731831095 0 0 0
287 444 1 0 4.786280207916962 39.529327521247986 7.051886949945351 0 0 0
289 444 1 0 4.016794221621882 40.44110759425755 7.80518614227049 0 0 0
288 444 2 0 4.72029528104791 38.495778387821346 7.291069908406335 0 0 0
285 444 1 0 5.623014486139385 39.993680868371335 6.019526663312324 0 0 0
286 444 2 0 6.25048068164426 39.28337525902737 5.498241025594515 0 0 0
2227 444 1 0 10.100582343852718 39.376631533475575 4.713338445948222 0 0 0
2255 444 2 0 9.114564168839987 39.20027228051579 5.052475629910018 0 0 0
2234 444 1 0 9.966561909069659 35.917059693961384 4.107721870682875 0 0 0
2238 444 2 0 9.011657190128403 36.40125221114653 4.294068875260321 0 0 0
2228 444 5 0 11.193790979762609 38.607005273969136 4.929175188085297 0 0 1
2239 444 1 0 11.020226550569722 33.94089408101185 3.177098295492857 0 0 0
2231 444 2 0 10.399517861466064 37.37655201114625 6.464256984560347 0 0 1
2229 444 6 0 11.239969768299703 37.3930407719788 5.721994399138888 0 0 1
2252 444 5 0 10.3988372896827 40.35344217745325 3.8552783764528016 0 0 1
2253 444 1 0 11.70066176197854 40.19118171136786 3.4869795858146118 0 0 1
2233 444 1 0 12.237647400554337 35.33143776153846 4.697530239915199 0 0 1
365 444 3 0 8.92009646075646 44.344386871446545 1.4411100635264582 0 0 1