LAMMPS data file via write_data, version 7 Feb 2024, timestep = 2009610, units = real

2232 atoms
7 atom types
2640 bonds
14 bond types
5352 angles
25 angle types
5640 dihedrals
6 dihedral types
2520 impropers
1 improper types

-0.7999999999999999 39.56866300000001 xlo xhi
-0.7999999999999999 39.70703800000001 ylo yhi
-0.7999999999999999 39.62939100000001 zlo zhi
0.047909 0.012417 0.035264 xy xz yz

Masses

    1    12.010700000 # C_R
    2     1.007940000 # H_
    3    15.999400000 # O_2
    4    65.380000000 # Zn2f2
    5    14.006700000 # N_3
    6    12.010700000 # C_2
    7    12.010700000 # C_3

Bond Coeffs

    1      391.669513        1.458000  # C_R C_R
    2      714.557442        1.269010  # C_R O_2
    3      462.655054        1.379256  # C_R C_R
    4      357.440381        1.081418  # C_R H_
    5      111.058393        2.079698  # O_2 Zn2f2
    6      602.435128        0.966432  # O_2 H_
    7       19.441823        3.080101  # Zn2f2 Zn2f2
    8      140.356048        1.989314  # Zn2f2 N_3
    9      556.800015        1.426179  # N_3 C_2
   10      528.634538        1.451071  # N_3 C_3
   11      367.712375        1.489000  # C_2 C_3
   12      354.483902        1.084416  # C_2 H_
   13      331.069389        1.109401  # C_3 H_
   14      349.795899        1.514000  # C_3 C_3

Angle Coeffs

    1              cosine/periodic      137.714246              -1               3 # C_R C_R O_2
    2              cosine/periodic      206.778426              -1               3 # O_2 C_R O_2
    3              cosine/periodic      102.183280              -1               3 # C_R C_R C_R
    4              cosine/periodic      111.297508              -1               3 # C_R C_R C_R
    5              cosine/periodic       57.289016              -1               3 # C_R C_R H_
    6              cosine/periodic       39.441082              -1               3 # C_R O_2 Zn2f2
    7              cosine/periodic       17.706467              -1               3 # Zn2f2 O_2 H_
    8              cosine/periodic       44.863234              -1               3 # H_ O_2 H_
    9              cosine/periodic       46.978550              -1               3 # O_2 Zn2f2 O_2
   10              cosine/periodic       13.328014              -1               3 # O_2 Zn2f2 Zn2f2
   11              cosine/periodic       55.466920              -1               3 # O_2 Zn2f2 N_3
   12              cosine/periodic       15.369924              -1               3 # Zn2f2 Zn2f2 N_3
   13                      fourier      103.544874        0.317506        0.313225        0.272502 # Zn2f2 N_3 C_2
   14                      fourier      101.876823        0.317506        0.313225        0.272502 # Zn2f2 N_3 C_3
   15                      fourier      267.657505        0.317506        0.313225        0.272502 # C_2 N_3 C_3
   16                      fourier      260.869388        0.317506        0.313225        0.272502 # C_3 N_3 C_3
   17              cosine/periodic      125.395432              -1               3 # N_3 C_2 C_3
   18              cosine/periodic       71.407473              -1               3 # N_3 C_2 H_
   19              cosine/periodic       49.433937              -1               3 # C_3 C_2 H_
   20                      fourier      311.265699        0.343737        0.374972        0.281246 # C_2 C_3 N_3
   21                      fourier      121.290688        0.343737        0.374972        0.281246 # C_2 C_3 H_
   22                      fourier      169.780468        0.343737        0.374972        0.281246 # N_3 C_3 H_
   23                      fourier       75.498766        0.343737        0.374972        0.281246 # H_ C_3 H_
   24                      fourier      303.297032        0.343737        0.374972        0.281246 # N_3 C_3 C_3
   25                      fourier      117.318683        0.343737        0.374972        0.281246 # C_3 C_3 H_

Dihedral Coeffs

    1        1.250000              -1               2 # O_2 C_R C_R C_R
    2        6.737110              -1               2 # C_R C_R O_2 Zn2f2
    3        3.368555              -1               2 # C_R C_R C_R H_
    4        0.166667               1               3 # Zn2f2 N_3 C_2 C_3
    5        0.054250               1               3 # Zn2f2 N_3 C_3 C_3
    6        0.117722               1               3 # N_3 C_3 C_3 N_3

Improper Coeffs

    1        2.000000        1.000000       -1.000000        0.000000               0 # C_R C_R O_2 O_2

Pair Coeffs

    1        0.105000        3.430851 # C_R C_R
    2        0.044000        2.571134 # H_ H_
    3        0.060000        3.118146 # O_2 O_2
    4        0.124000        2.461553 # Zn2f2 Zn2f2
    5        0.069000        3.260689 # N_3 N_3
    6        0.105000        3.430851 # C_2 C_2
    7        0.105000        3.430851 # C_3 C_3

Atoms # full

177 444 3 0 3.8444136774501416 0.7420276758971253 6.2385748925553495 0 0 0
130 444 1 0 2.064563858493056 2.5378718577025214 7.5342292593311635 0 0 0
131 444 2 0 2.0326377612690134 2.460247684776671 6.464457475665217 0 0 0
301 444 1 0 7.639365804452159 3.608687318730877 5.686830722147939 0 0 0
183 444 3 0 5.014512712142763 1.1840848853379615 5.090020371207995 0 0 0
295 444 1 0 6.305697418894324 5.15692005764117 1.953644472150522 0 0 0
304 444 1 0 6.166025113893196 3.4583698000022824 3.770467722563559 0 0 0
305 444 2 0 5.2886337955475184 2.9800516354636435 3.294640825471723 0 0 0
307 444 1 0 4.404026145169006 7.464876378590465 1.1141829563859282 0 0 0
308 444 1 0 3.6779516992972896 8.174557103256602 2.147815796572726 0 0 0
316 444 1 0 2.5872680287749 7.543065349864526 2.7432129889727763 0 0 0
317 444 2 0 2.2338959935533325 6.624117639056814 2.3609844773682163 0 0 0
318 444 1 0 0.8330785383952847 7.4860161895147295 4.5219783068726755 0 0 0
371 444 3 0 5.545211304232856 4.452459427919609 1.2275277151861714 0 0 0
372 444 3 0 6.7055753827432145 6.296736046401676 1.5633658409233617 0 0 0
373 444 3 0 3.7894984914844736 6.640871672236896 0.3492820126770698 0 0 0
374 444 3 0 5.675983764869443 7.550407397164368 1.072796762502608 0 0 0
315 444 1 0 1.99462778496674 8.08872981301218 3.885761463859507 0 0 0
176 444 3 0 0.6078548067618404 7.710787649409908 5.742464969065973 0 0 0
306 444 1 0 6.178457389865452 1.6202539190148175 5.433374820726939 0 0 0
413 444 4 0 4.673102393685945 4.946764802865203 -0.5693366317217066 0 0 0
296 444 1 0 6.733890625736898 4.632245803706047 3.24519664124543 0 0 0
303 444 1 0 6.656927926951805 2.918566497403447 4.970395258325159 0 0 0
184 444 3 0 6.902202689134123 0.9094014319608289 6.206907507036171 0 0 0
414 444 4 0 6.934240060876809 6.971993607380469 -0.4655039136956611 0 0 0
302 444 2 0 8.016317907288412 3.177397374099966 6.628042718751754 0 0 0
297 444 1 0 7.709991679844117 5.334822965240103 4.021691115949663 0 0 0
299 444 1 0 8.17463667566784 4.810772638541258 5.205065080791079 0 0 0
298 444 2 0 8.207710960565436 6.257371633305702 3.682664325663307 0 0 0
132 444 1 0 3.825783551114533 0.7544168069875102 7.530277765030978 0 0 0
121 444 1 0 0.43470192932698104 4.418827289901779 7.3803713733576375 0 0 0
173 444 3 0 0.23075019195242963 4.174232563528567 6.146618491976342 0 0 0
175 444 3 0 0.1708411395402788 6.563899443883432 3.92853260514576 0 0 0
129 444 1 0 2.916290977070627 1.673077935614958 8.263787772167731 0 0 0
122 444 1 0 1.2712521164758988 3.488462165289821 8.185677554333552 0 0 0
178 444 3 0 4.589874893419679 -0.029758775621318234 8.183071245494535 0 0 0
174 444 3 0 -0.1405590640821005 5.42139111136244 7.937246113875882 0 0 0
1128 444 2 0 13.310402821102315 5.067351154928237 8.78524049214079 0 0 0
1847 444 2 0 1.0845051282608185 8.395164466758866 8.812303131345862 0 0 0
2189 444 2 0 17.481582713834943 7.881053003736658 9.248787193002892 0 0 0
300 444 2 0 8.97392649460959 5.309471115897781 5.746080221520697 0 0 0
1986 444 5 0 8.38914908238752 8.339433503463864 -0.6272745190370431 0 0 0
2183 444 7 0 18.532561149272862 8.167019908731469 9.03044923010894 0 0 0
2194 444 2 0 19.03922965451039 7.202266087874471 8.746776369461914 0 0 0
2182 444 7 0 18.602341472486337 9.232974190405818 7.876448749541098 0 0 0
196 444 3 0 -0.700632300657118 3.6838046624550635 3.1658904533713357 0 0 0
1434 444 2 0 14.051264930227392 8.380321694749242 4.496244468018846 0 0 0
433 444 2 0 2.7086797586073943 -0.6706432426743987 3.1469671678383246 0 0 0
1991 444 7 0 9.22861268271592 8.275702761742503 0.5844410110811232 0 0 0
1997 444 2 0 9.716746725282693 7.2809035123982975 0.6523045988777442 0 0 0
1903 444 2 0 9.489590138323392 -0.4119727911759144 7.237494079152509 0 0 0
1433 444 1 0 14.485392385163353 9.302418548694197 4.10000191040241 0 0 0
2001 444 2 0 11.317018875351375 8.93982930517017 0.5874065993270238 0 0 0
2002 444 2 0 8.598533104472065 8.343363086143766 1.486320972285438 0 0 0
427 444 2 0 -0.7058139543717716 3.9448875439377904 2.2329284749835603 0 0 0
2188 444 2 0 19.111495882277428 8.837946747509452 6.988490783288762 0 0 0
1909 444 2 0 11.172118300569585 -0.2969397134175288 8.800757276099816 0 0 0
1899 444 2 0 7.2892430046722 1.2277024367057523 9.16468667163705 0 0 0
1436 444 2 0 13.08718926228413 9.320422975563076 2.479202949463111 0 0 0
428 444 2 0 -0.5810799798462912 2.775525196650155 3.472581652051379 0 0 0
1140 444 2 0 7.586679753940419 3.836512190808807 15.27585285345252 0 0 0
756 444 2 0 3.643361709205518 8.037214001447369 15.076663055819603 0 0 0
1138 444 2 0 8.744002906968865 2.047918846990501 13.965099658098046 0 0 0
1139 444 1 0 8.632250394461149 3.593090332666672 15.504234155475114 0 0 0
1900 444 2 0 8.678453195061397 0.833226742053864 11.288586280148968 0 0 0
125 444 1 0 2.125414464584688 2.7465903888451235 10.337752262410627 0 0 0
126 444 2 0 2.1892731878408282 2.876778232468958 11.416551406222313 0 0 0
128 444 2 0 3.659645966932678 1.1901671527740012 10.235416179360149 0 0 0
1142 444 2 0 8.889362145499728 5.14060428991963 17.01377669975733 0 0 0
124 444 2 0 0.7466562522458778 4.3473545121749515 10.080979645139687 0 0 0
1893 444 7 0 9.164730148004722 0.6045556156302677 10.323431605039735 0 0 0
755 444 1 0 3.358693789143353 9.070090608677848 15.381314706107641 0 0 0
1852 444 2 0 0.0015492661193455826 7.311656158517658 9.729537580416372 0 0 0
127 444 1 0 2.965013939781747 1.7957054039549325 9.665196117934276 0 0 0
123 444 1 0 1.3025474581182768 3.5790179327807152 9.583464187011016 0 0 0
754 444 2 0 4.9029746024434955 9.309496553205665 16.8262459489423 0 0 0
1846 444 2 0 -0.012628630680149633 8.843224172082337 11.45023350259188 0 0 0
758 444 2 0 1.6596611186700745 8.951730469143486 14.134965974501581 0 0 0
1129 444 1 0 15.029847425081988 5.124899796258374 10.078587487080654 0 0 0
2014 444 2 0 10.490685496519701 9.178123628106574 17.549352699373646 0 0 0
1137 444 1 0 9.275678002928982 2.5628497496670537 14.781693077354571 0 0 0
1141 444 1 0 9.339360765668811 4.297911804464997 16.50351284214559 0 0 0
1297 444 4 0 13.664348294217987 -0.7027990124677215 13.830818084130591 0 0 0
1841 444 7 0 0.1167292993717357 8.383943709932632 9.342622145615115 0 0 0
1233 444 1 0 13.888999480721234 9.119320827019878 16.115845322759064 0 0 0
2179 444 5 0 19.1640561841546 8.71711551907185 10.262248527035746 0 0 0
1237 444 1 0 15.57825510802867 9.271452508472045 14.380994752509954 0 0 0
1298 444 4 0 11.298967266580538 -0.725388142671409 11.886694492343558 0 0 0
1125 444 1 0 13.351371617253431 3.3977008804547513 10.158716257086137 0 0 0
1239 444 1 0 16.048154654280996 7.987843030718095 14.766174237383696 0 0 0
1098 444 4 0 19.05155213917987 7.355660827598977 11.689596409423414 0 0 0
1123 444 1 0 13.397651697280537 1.6196382213343679 11.96519839282158 0 0 0
1242 444 1 0 17.185654116496064 7.39799037023966 14.086079655873307 0 0 0
1074 444 3 0 17.11944915426063 6.42746183209862 11.612034478192758 0 0 0
1278 444 3 0 10.731154033266316 5.501270102164597 18.66134084136222 0 0 0
1248 444 3 0 12.583797962588454 0.8441218428201355 11.362391932499557 0 0 0
1146 444 1 0 11.42498520197682 4.815105075115311 17.813219221009327 0 0 0
1086 444 3 0 19.006733440220387 3.577969302332603 15.165930037016558 0 0 0
1124 444 1 0 13.9994143963137 2.8165137324451717 11.275039061082378 0 0 0
1241 444 2 0 15.832636380515702 6.362670550117868 16.237323618098124 0 0 0
1279 444 3 0 13.873718926622681 5.939577196960564 17.851837172742894 0 0 0
1127 444 1 0 13.852588248434808 4.569605998269555 9.59347761399025 0 0 0
2019 444 2 0 9.201852626675954 7.916308596968949 17.842053365478147 0 0 0
1076 444 3 0 17.308759734289136 7.592551805884006 12.851227939984925 0 0 0
1136 444 1 0 10.596693112357691 2.2292540437448576 15.0788969690045 0 0 0
1905 444 2 0 9.883070517600052 1.4082546197772352 10.038441702066915 0 0 0
1240 444 1 0 15.454595157456165 7.322370026918192 15.870488421673166 0 0 0
1314 444 2 0 18.6118904572414 2.71763766746364 14.995467983439525 0 0 0
1145 444 2 0 12.378169588233337 2.7244894751445425 16.1884622000395 0 0 0
1132 444 1 0 15.203342301650778 3.3515573553291924 11.724872475529528 0 0 0
2007 444 7 0 9.656141360431498 8.854651895563256 18.25034590053701 0 0 0
1135 444 1 0 11.255265015210103 1.1372057146118633 14.313969261679558 0 0 0
1143 444 1 0 10.694366608471976 4.011646538818014 16.760708315215766 0 0 0
1073 444 3 0 17.85338570955254 4.401724535751305 12.279412377609956 0 0 0
1133 444 2 0 15.731416820905814 2.916846173821301 12.590844373990508 0 0 0
1232 444 1 0 14.368985587537129 7.880159878974111 16.538545479502044 0 0 0
1131 444 1 0 15.722713486562064 4.545109107764708 11.160453023425946 0 0 0
1144 444 1 0 11.303913021972281 2.9781881964273653 16.029161917856023 0 0 0
1097 444 4 0 19.108630933393005 5.115019915094655 13.753980520105207 0 0 0
1250 444 3 0 10.549123952791577 0.32928461919560903 13.585826584446018 0 0 0
1249 444 3 0 12.548495190118267 1.0224615264578953 14.328460303256158 0 0 0
1247 444 3 0 13.744254363896664 1.2817571703915975 13.143336460025658 0 0 0
1130 444 2 0 15.42498584836179 5.978704557161751 9.566466348525674 0 0 0
1277 444 3 0 12.69374022369869 4.7770378709918 17.88788186885824 0 0 0
1126 444 2 0 12.423342416398736 2.9765276049425378 9.79573381285046 0 0 0
1280 444 3 0 13.021614694881098 7.856293930338153 18.506697997441456 0 0 0
1134 444 1 0 16.96549286175997 5.152781867383833 11.672694189160438 0 0 0
1075 444 3 0 17.92352373540429 6.53886269753548 14.66415893375105 0 0 0
1231 444 1 0 13.780536610068923 7.210054726715222 17.717624749589874 0 0 0
1313 444 2 0 19.322588235953226 3.754854194896536 16.06550168086116 0 0 0
1332 444 2 0 16.107019874482035 -0.7215588763230203 14.980239859722682 0 0 0
1894 444 5 0 9.825298942490251 -0.7099542701959393 10.4558017721962 0 0 0
1892 444 6 0 8.070890118223053 0.46439025447753035 9.309295100551576 0 0 0
2012 444 7 0 8.901655523914748 8.117695471065579 20.43161002515055 0 0 0
1806 444 2 0 -0.09461554822420815 8.605780230914146 27.452681839960757 0 0 -1
1812 444 2 0 -0.12005781921727954 7.033957504682344 29.079186676149334 0 0 -1
2018 444 2 0 9.19579824798229 7.859166887579971 21.481616970435326 0 0 0
2011 444 7 0 7.807771641001849 9.195423685364629 20.453233894129824 0 0 0
1224 444 2 0 8.904591224576185 4.9318056024544985 25.735980310253428 0 0 0
216 444 2 0 5.099746882089461 4.91834212000725 29.081421564596337 0 0 -1
1282 444 3 0 12.49436288712513 7.317315479535641 21.68608658000808 0 0 0
1304 444 4 0 12.137490150752564 -0.7048016264023154 27.64701295719105 0 0 0
980 444 2 0 12.63182399967678 8.815692663528923 23.7843108384234 0 0 0
1223 444 1 0 9.595057721189303 4.397715516085236 25.145704324565425 0 0 0
976 444 2 0 15.843875978577657 8.650102838815714 26.546284734708955 0 0 0
2017 444 2 0 6.826952225642502 8.789807494018662 20.04129719778176 0 0 0
1926 444 2 0 9.203394751960818 0.24509010685622645 27.7637511790566 0 0 -1
1920 444 2 0 7.57777446409069 0.12696425926795019 29.415922779392833 0 0 -1
993 444 1 0 15.994897301163554 1.3141951527017066 28.628816797391103 0 0 0
983 444 2 0 16.286996475624463 6.655511064703158 22.724956647902953 0 0 0
973 444 1 0 17.497962379091963 6.998255014092221 25.1517988394493 0 0 0
977 444 1 0 14.230600131161486 8.880606557258492 25.17579640307785 0 0 0
1051 444 3 0 18.485638239351612 3.9134532848346186 26.4314323555797 0 0 0
1221 444 1 0 10.144811983975945 3.1936796055805723 25.590735697196667 0 0 0
1275 444 3 0 12.128766820782534 4.246096193557287 21.039256596860678 0 0 0
1219 444 1 0 11.788441189436849 1.3043897620866156 25.381868825763295 0 0 0
1227 444 1 0 10.90812797317258 4.271415230194345 23.111276161172672 0 0 0
1327 444 2 0 16.12970718104043 4.1540356140356 20.0892856200489 0 0 0
982 444 1 0 15.724846722388836 7.308591856951565 23.387976536305874 0 0 0
975 444 1 0 15.464247187079316 8.358990885309385 25.54870644106804 0 0 0
1050 444 3 0 17.792860061235704 7.052208381416019 26.394310025187817 0 0 0
2172 444 2 0 17.508248268129726 7.793315031007912 29.189556791166304 0 0 0
1083 444 3 0 19.27117185178288 3.6434963072018762 23.30130791985535 0 0 0
1294 444 3 0 15.10094489951396 -0.4015157228230166 23.555783235606075 0 0 0
994 444 1 0 16.777387706508897 2.243459206305412 27.89222514141155 0 0 0
1328 444 2 0 15.020684006124629 2.8895422660019014 20.439210005287816 0 0 0
1274 444 3 0 14.037743877517872 -0.1253487317118963 28.557344548821053 0 0 0
1271 444 3 0 12.378428951248303 0.48744887193948705 24.597673834159306 0 0 0
1226 444 2 0 9.648718489009404 5.9115059502078235 23.644127410216615 0 0 0
1273 444 3 0 15.030650238333765 0.42671893371570835 26.6500352960045 0 0 0
984 444 1 0 13.761161950172855 7.2922779631692185 21.82342851144706 0 0 0
974 444 1 0 16.226464254575014 7.577314474856396 24.66906679873034 0 0 0
981 444 1 0 14.406964869579838 7.748908105471664 23.054509547875398 0 0 0
1228 444 1 0 11.451864874983327 3.0234091870556807 23.56309550420443 0 0 0
1306 444 4 0 11.498343812129436 7.150178227400461 19.773775646380738 0 0 0
985 444 1 0 18.52601733841981 4.003791693409824 27.709980156054396 0 0 0
1281 444 3 0 14.468269823534108 6.732025630550214 20.921663709633787 0 0 0
1052 444 3 0 19.217147551242217 4.975870610169136 28.261721971167404 0 0 0
1230 444 1 0 11.469854072668834 4.924919838076843 21.87332658210692 0 0 0
986 444 1 0 17.779012121776454 3.0340861602301676 28.49678380750878 0 0 0
979 444 1 0 13.659694209182923 8.522609262629148 23.969915144780174 0 0 0
1222 444 2 0 9.908260680014566 2.851456506651358 26.57524149530039 0 0 0
1323 444 2 0 15.127357713916254 0.40680534759088827 23.01917525854262 0 0 0
2023 444 2 0 8.483614222615348 7.191905845794019 20.04434943692639 0 0 0
995 444 2 0 16.662421250332216 2.3442503639931807 26.794542587625802 0 0 0
1276 444 3 0 11.39219378492206 6.192894157199072 21.75876714084886 0 0 0
2008 444 5 0 10.077917730357091 8.579722572587887 19.63307468315294 0 0 0
1225 444 1 0 9.992028872183973 4.938160513105727 23.917151505533578 0 0 0
1220 444 1 0 11.096536114507888 2.505995478366886 24.80828971550814 0 0 0
1295 444 3 0 15.233922763525872 3.79536958104324 20.219884981887294 0 0 0
1305 444 4 0 13.652160292681126 5.13406950187931 19.789684205118434 0 0 0
1049 444 3 0 18.287814488380462 6.4357050205476325 24.341187630333806 0 0 0
1272 444 3 0 11.732334951374952 1.0720471819103237 26.632586817136367 0 0 0
996 444 1 0 14.96944214136477 0.518652551616802 27.9249364032905 0 0 0
1229 444 2 0 12.26442364986579 2.5450163654264912 23.026958703096945 0 0 0
1326 444 2 0 18.523593962255188 3.7557057003592895 22.698868842086284 0 0 0
1303 444 4 0 13.95431754688073 -0.6608001062971892 25.28187018887416 0 0 0
1910 444 5 0 10.694237173980053 -0.5943508795205683 29.06385211419698 0 0 -1
1915 444 7 0 9.358920748825794 -0.6720849209876563 28.435258245780147 0 0 -1
211 444 1 0 1.7440238694541068 5.2109059216686635 32.25433489014243 0 0 -1
212 444 1 0 3.052782901893733 4.654842082188353 31.76440648299943 0 0 -1
220 444 1 0 3.6503011165469195 3.539630365662987 32.39059365682061 0 0 -1
221 444 2 0 3.2215065309533957 3.122841188411446 33.30989965645127 0 0 -1
222 444 1 0 5.363198033382006 1.7170137423470306 32.372166222005134 0 0 -1
223 444 1 0 0.9255060515253349 7.258823516198544 34.65112686966241 0 0 -1
232 444 1 0 2.504618452601051 7.447720184312227 36.573215583227515 0 0 -1
233 444 2 0 2.2686696196079876 6.439745492234958 36.90712133367395 0 0 -1
271 444 1 0 7.440219314713377 1.1510454265444725 34.77340099746291 0 0 -1
280 444 1 0 7.3756289412605645 2.9090851493693 36.56510520623992 0 0 -1
281 444 2 0 6.325361858231561 2.882545055451162 36.549807312733435 0 0 -1
355 444 3 0 1.3309563814610956 4.895345554622433 33.42504716805374 0 0 -1
356 444 3 0 1.017593384727586 5.925844510141787 31.508144789952826 0 0 -1
357 444 3 0 0.8836648899118565 5.983917237931721 34.6959059796684 0 0 -1
358 444 3 0 0.12226324134752709 7.862074188699144 33.82921405537945 0 0 -1
365 444 3 0 6.151876054792074 1.0757453158358987 34.716074107958995 0 0 -1
367 444 3 0 5.04646817511663 1.2955087460188364 33.52948214684069 0 0 -1
219 444 1 0 4.760452536272712 2.9401567980796814 31.83013820633739 0 0 -1
368 444 3 0 6.210810886575457 1.059163881523733 31.70660970564362 0 0 -1
217 444 1 0 5.277954169718395 3.4856087156973556 30.640438488225723 0 0 -1
213 444 1 0 3.654476927012774 5.247164578760012 30.64340050975631 0 0 -1
214 444 2 0 3.2653060532265483 6.216673769052042 30.226615432955487 0 0 -1
272 444 1 0 8.110214532219791 2.0800204556888238 35.67357644064044 0 0 -1
218 444 2 0 6.18565728351166 3.0733142936423614 30.198515566782838 0 0 -1
215 444 1 0 4.708267538737714 4.618558386443053 30.046419249642113 0 0 -1
224 444 1 0 1.8404199766086098 8.039317924990382 35.45893356560219 0 0 -1
231 444 1 0 3.5597041660711017 8.101835359098393 37.211152444854164 0 0 -1
366 444 3 0 8.108434678820704 0.37721727967293506 34.012544251894255 0 0 -1
279 444 1 0 8.019717790022572 3.711177559415739 37.524207250280774 0 0 -1
234 444 1 0 4.314412005915653 7.386159491512262 38.25967266613001 0 0 -1
376 444 3 0 5.555066906338707 7.565782441519937 38.405562110111305 0 0 -1
377 444 3 0 5.987756555645366 4.543671377321281 38.33317074058648 0 0 -1
282 444 1 0 7.250825626457449 4.511302165310656 38.46544996352174 0 0 -1
375 444 3 0 3.6885837010817824 6.546523945718593 38.97326976977017 0 0 -1
378 444 3 0 7.842775697432635 5.203148093738125 39.34979908826891 0 0 -1
1913 444 5 0 8.894002948444935 -0.5480500351433732 30.90161526522 0 0 -1
412 444 4 0 7.4118827595070345 -0.6151669672398142 32.286601461760064 0 0 -1
2003 444 2 0 9.751131172118408 7.263313662239008 38.583321023877076 0 0 -1
405 444 3 0 3.6093913136207867 3.3768653947819267 39.265105214964 0 0 -1
2162 444 7 0 18.44223967566443 9.146291248235665 30.712154385503773 0 0 0
1999 444 2 0 11.428355410414003 8.932171469268402 38.611458212082 0 0 -1
410 444 4 0 -0.7023754810735082 7.005557037955301 32.04277641563439 0 0 -1
1998 444 2 0 8.699368708293074 8.336713189480468 37.66313462334927 0 0 -1
1797 444 6 0 0.42387170340574387 9.208119681087846 30.636241606589746 0 0 -1
409 444 4 0 -0.6811253099776662 4.760956939690384 34.036697382406516 0 0 -1
1992 444 7 0 9.287998090143594 8.271500678260436 38.60485817990222 0 0 -1
987 444 1 0 17.975512141882522 2.891910225737009 29.90049707632987 0 0 0
2161 444 7 0 18.486958918672137 8.034851351267815 29.638496376842422 0 0 0
274 444 2 0 10.107755913506377 1.3123007167066687 35.20805397695736 0 0 -1
444 444 2 0 -0.11791081510645929 2.8156531874879582 35.721919245445 0 0 -1
988 444 2 0 18.708789575950483 3.5206381270923472 30.436039707421706 0 0 0
2167 444 2 0 18.73460171712498 7.066887840203921 30.1454893555281 0 0 0
275 444 1 0 10.178141301041643 2.9686393236484405 36.626407519219505 0 0 -1
276 444 2 0 11.252343470596877 2.984344339869769 36.656383015215724 0 0 -1
2173 444 2 0 18.70603013540042 8.74558587640726 31.724757231647008 0 0 0
1911 444 6 0 10.752386088869702 0.5751650876311211 29.913018994418547 0 0 -1
992 444 2 0 15.513905106987892 0.633523424217599 30.61189970351146 0 0 0
990 444 2 0 17.194259276075393 1.9623095911550275 31.726032096630473 0 0 0
991 444 1 0 16.167772382570536 1.2541829804947517 30.029111847586503 0 0 0
1919 444 2 0 9.111493834952283 1.6262066777514925 30.732978165630723 0 0 -1
1912 444 7 0 9.674893813039118 0.699775553614259 30.949850525307227 0 0 -1
273 444 1 0 9.531250188158324 2.0579559278877393 35.78076538268357 0 0 -1
277 444 1 0 9.438813300201211 3.7714544808237473 37.55105302926155 0 0 -1
1656 444 2 0 13.502557407771071 8.817102413771275 33.675874584042724 0 0 -1
278 444 2 0 9.996583037448788 4.410814449638326 38.2847522758337 0 0 -1
1924 444 2 0 10.108528502649644 0.8018989150744459 31.99019497207016 0 0 -1
989 444 1 0 17.148404588430964 2.045374423328371 30.65705339691603 0 0 0
1804 444 2 0 1.251346700529154 8.982650166661944 31.241310737128327 0 0 -1
1918 444 2 0 11.458462101039173 1.364376569974333 29.736983972595212 0 0 -1
411 444 4 0 5.1087843146855905 -0.713955900058519 34.10968269875858 0 0 -1
442 444 2 0 2.6805048117749077 3.525708415537152 39.043706093036526 0 0 -1
441 444 2 0 3.8909020169072353 2.4755653517393905 39.47173772682959 0 0 -1
225 444 1 0 2.209163492110905 9.315276840297821 35.078109005704995 0 0 -1
1914 444 7 0 8.2587502303735 -0.7042218485213251 29.560796009033183 0 0 -1
1668 444 2 0 8.384105635780747 14.184419462303365 4.430233370016144 0 0 0
312 444 2 0 3.844896067470324 11.04344162517995 4.068296658645067 0 0 0
2092 444 2 0 8.87575186606334 18.29008073111913 7.325140013897125 0 0 0
570 444 2 0 4.880225323466591 13.813691547541309 8.964937095926361 0 0 0
1849 444 2 0 0.15403462917096178 10.093076278809802 7.1469489251192595 0 0 0
1845 444 2 0 0.19841049186143478 11.703875170371107 9.040700004426958 0 0 0
1667 444 1 0 9.237409583963087 14.602099787058453 3.9860523257643132 0 0 0
1670 444 2 0 9.391743739051023 16.108542339054477 5.489676495568956 0 0 0
1666 444 2 0 9.262383174211715 13.15158590622294 2.406858147686108 0 0 0
1769 444 2 0 18.275993528065676 15.287888577251078 2.7053043704215693 0 0 0
1535 444 4 0 19.36001112019064 13.739067066677718 4.651271797235792 0 0 0
2085 444 7 0 7.757386030487676 19.455363890815434 8.84500569169667 0 0 0
310 444 2 0 4.8589964989808845 9.998553082247385 2.0860475290559655 0 0 0
1995 444 2 0 8.638610781600764 11.451607481436616 0.17933740206277105 0 0 0
314 444 2 0 2.0409969755739956 9.763441910214988 5.206247309802782 0 0 0
1987 444 6 0 7.799695772096421 9.657960318360756 -0.6793602845647322 0 0 0
311 444 1 0 3.5242042065169583 10.032134404498631 3.719565888127267 0 0 0
1988 444 7 0 8.802900031342181 10.803830458667964 -0.693356760561384 0 0 0
2086 444 7 0 8.888142775954211 19.30537223403788 7.775033255144035 0 0 0
1432 444 2 0 15.97752046182135 9.338111815428848 5.511664453178049 0 0 0
1989 444 5 0 10.166922740305447 10.234732874042022 -0.6449281170608951 0 0 0
1536 444 4 0 19.297078325146785 11.874364860661535 6.948848758729833 0 0 0
1495 444 3 0 18.23501137168248 12.114071336254476 4.012381134031491 0 0 0
1427 444 2 0 16.24588435862261 16.442468592964513 6.2539689532313405 0 0 0
1429 444 1 0 17.356080744585576 11.589113733609175 4.725292347434338 0 0 0
2176 444 5 0 19.244088030871765 10.45811800236909 8.364317260590804 0 0 0
2096 444 2 0 7.076222121055957 18.552232055209114 8.849640325365549 0 0 0
1996 444 2 0 10.20171697424135 10.045990493584 1.4615021187025463 0 0 0
1665 444 1 0 9.741421418177524 14.058565032599194 2.8161561147375425 0 0 0
1772 444 2 0 15.031988160810965 18.511701631659918 2.406394006607464 0 0 0
2098 444 2 0 10.449394375731645 17.477442295824517 8.875660348976893 0 0 0
1715 444 3 0 12.82080151546038 14.009659275196682 0.90118649929693 0 0 0
1720 444 3 0 11.475038533719403 17.67377803567796 5.94586781511936 0 0 0
1748 444 4 0 11.597308982183668 11.621023426507787 -0.7886599313931953 0 0 0
1527 444 3 0 19.164674998122894 15.049414890738143 3.000664957768904 0 0 0
2187 444 2 0 17.442653392554465 11.228943228518041 9.189901317298641 0 0 0
1439 444 2 0 16.099633147208234 12.492224776419283 2.542065552217215 0 0 0
1418 444 1 0 17.302674697680533 15.727144927051036 8.020222162169576 0 0 0
1739 444 3 0 15.093520326636876 19.286938219672752 2.979283785406576 0 0 0
1718 444 3 0 13.166227174723728 10.867283233770019 0.4097595170850138 0 0 0
1440 444 1 0 13.872879799496086 11.591327153144505 1.1779276712497913 0 0 0
1430 444 1 0 16.150222239486784 11.002628837073454 4.138922416755393 0 0 0
1438 444 1 0 15.604546102916103 11.592570768539657 3.005108033104542 0 0 0
1717 444 3 0 14.003260000399132 12.830157574517791 0.9609858179933727 0 0 0
1725 444 3 0 14.771510619454844 18.330619592345897 5.993130028604436 0 0 0
1435 444 1 0 13.949267831044859 9.804126606402342 2.9233549240545003 0 0 0
1437 444 1 0 14.490610998833514 11.005008413474602 2.3789420010436935 0 0 0
1496 444 3 0 17.44981336684452 11.578414644981802 5.961164035784122 0 0 0
1674 444 1 0 11.66695640534028 17.429794612263198 4.702948344791895 0 0 0
1719 444 3 0 12.21881322233413 18.3088528166717 3.971020382358601 0 0 0
1426 444 1 0 16.336413838012934 16.49717922264672 7.339232999260907 0 0 0
1431 444 1 0 15.597408038236967 9.85048588542895 4.674787355062445 0 0 0
1417 444 1 0 18.069702123489602 14.668640945846382 7.258232851037671 0 0 0
1716 444 3 0 10.875639239609532 13.197056115320203 0.3395751601943485 0 0 0
1673 444 2 0 12.398107713539941 16.17369422602003 2.435770736266673 0 0 0
1663 444 1 0 11.588797365907666 13.937856463354276 1.1030359145292326 0 0 0
1664 444 1 0 10.95243952564262 14.568203482598175 2.299469834034824 0 0 0
1672 444 1 0 11.549515423723454 15.697272186220417 2.8963805757140944 0 0 0
1726 444 3 0 13.497800344929866 18.68000337933195 7.754717541391165 0 0 0
1493 444 3 0 18.151470748561973 14.760914517844471 5.985493811377096 0 0 0
1669 444 1 0 9.843284823848604 15.710227889326248 4.617688854848393 0 0 0
1671 444 1 0 11.039579980254011 16.25601345261025 4.095768497346762 0 0 0
1428 444 1 0 14.570650540776212 18.190364161944153 7.240133609629482 0 0 0
1425 444 1 0 15.482756568371283 17.35476975602348 8.011694498999884 0 0 0
1494 444 3 0 18.762497016115123 13.768825699785095 7.852970475741006 0 0 0