2232
 Atoms. Timestep: 0
1 37.7211 34.5905 6.96473
1 36.7535 35.4628 7.6891
1 36.356 35.1161 8.99845
2 36.85 34.2847 9.54828
1 35.327 35.8089 9.62906
2 34.9916 35.522 10.6272
1 34.7237 36.9274 8.99608
2 33.9303 37.467 9.53608
1 35.0838 37.2765 7.71356
1 36.0669 36.5267 7.03301
2 36.3449 36.8256 6.02122
1 34.2839 38.3292 6.99441
1 37.7397 31.5903 4.29246
1 36.7655 30.8888 3.42412
1 36.3276 29.5919 3.74157
2 36.6443 29.1066 4.6336
1 35.3923 28.9064 2.94064
2 35.143 27.895 3.20933
1 34.8905 29.5417 1.79892
2 34.1653 29.0589 1.14152
1 35.1861 30.898 1.57462
1 36.2243 31.5095 2.31227
2 36.5407 32.5896 2.08622
1 34.497 31.633 0.502299
1 1.44517 32.1323 4.93104
1 2.70342 31.6055 4.39194
1 3.29797 30.4881 4.96318
2 2.88313 30.0768 5.87426
1 4.47187 29.943 4.42826
2 5.0136 29.1346 4.91487
1 5.06111 30.4831 3.29915
2 6.0125 30.093 3.01288
1 4.51576 31.6188 2.69539
1 3.28953 32.1108 3.2331
2 2.81522 32.9593 2.7193
1 5.14232 32.2338 1.51892
1 0.560829 34.4052 7.23227
1 1.30607 35.3723 8.03487
1 1.06366 35.4928 9.42725
2 0.347451 34.8291 9.90886
1 1.69421 36.5119 10.152
2 1.48693 36.6154 11.206
1 2.66138 37.318 9.56032
2 3.16616 38.0844 10.1091
1 2.88323 37.2304 8.16229
1 2.21273 36.2312 7.4252
2 2.45182 36.1297 6.38331
1 3.79996 38.1105 7.46176
1 31.218 1.17961 4.30711
1 30.5307 2.27267 3.57031
1 29.3022 2.80573 4.05653
2 28.7518 2.31274 4.87058
1 28.7605 3.91895 3.42586
2 27.8866 4.40121 3.83088
1 29.3672 4.54481 2.34575
2 28.9644 5.46353 1.92774
1 30.6055 4.04612 1.87681
1 31.1855 2.89507 2.48913
2 32.1361 2.50696 2.06731
1 31.4108 4.71667 0.784972
1 32.1326 37.5649 4.72193
1 31.6963 36.2186 4.24045
1 30.5592 35.6448 4.79592
2 30.0769 36.0466 5.66352
1 29.9777 34.5067 4.20128
2 29.0448 34.0834 4.63888
1 30.5406 33.9291 3.08317
2 30.0852 33.0446 2.67747
1 31.7084 34.4501 2.52988
1 32.2977 35.5878 3.11879
2 33.1742 35.9855 2.66706
1 32.2763 33.9197 1.29973
1 34.2388 1.04109 6.98982
1 35.1223 1.9005 7.7471
1 35.0424 1.92048 9.14647
2 34.4301 1.18777 9.63253
1 35.8542 2.75754 9.90755
2 35.863 2.72679 11.0092
1 36.7857 3.62197 9.30118
2 37.397 4.29877 9.92081
1 36.7459 3.70956 7.89498
1 35.9423 2.84228 7.1303
2 35.9605 2.90467 6.03082
1 37.6087 4.71565 7.16278
1 31.6227 34.1909 37.4468
1 30.9777 34.8619 36.3045
1 29.8505 34.2786 35.7014
2 29.466 33.3159 36.0516
1 29.1819 34.955 34.6628
2 28.2779 34.5304 34.2813
1 29.6837 36.189 34.1932
2 29.1504 36.7355 33.425
1 30.8683 36.7712 34.7871
1 31.475 36.0963 35.8522
2 32.3345 36.5296 36.3289
1 31.4699 37.9563 34.1841
1 34.7451 31.8236 37.7075
1 35.6212 31.1442 36.7638
1 35.4372 29.7878 36.4252
2 34.7134 29.198 36.9864
1 36.1449 29.2329 35.3594
2 36.0173 28.2032 35.1491
1 37.0218 30.0129 34.5999
2 37.5062 29.5666 33.7802
1 37.198 31.3642 34.9048
1 36.5206 31.9245 35.9965
2 36.6945 32.9839 36.2067
1 38.1392 32.1309 34.0553
1 37.0979 7.0507 4.9829
1 35.8279 7.57834 4.43439
1 35.3108 8.83462 4.90815
2 35.7851 9.33245 5.75094
1 34.2538 9.45991 4.25283
2 33.924 10.4561 4.55496
1 33.7173 8.85364 3.11119
2 32.9041 9.30613 2.57093
1 34.1667 7.57171 2.65241
1 35.2082 6.94539 3.35527
2 35.6848 6.0435 2.95262
1 33.7153 7.0072 1.34159
1 0.434702 4.41883 7.38037
1 1.27125 3.48846 8.18568
1 1.30255 3.57902 9.58346
2 0.746656 4.34735 10.081
1 2.12541 2.74659 10.3378
2 2.18927 2.87678 11.4166
1 2.96501 1.79571 9.6652
2 3.65965 1.19017 10.2354
1 2.91629 1.67308 8.26379
1 2.06456 2.53787 7.53423
2 2.03264 2.46025 6.46446
1 3.82578 0.754417 7.53028
1 7.02525 37.8673 5.04831
1 7.7735 36.7641 4.34762
1 9.07876 36.4253 4.75776
2 9.46998 36.851 5.71029
1 9.75068 35.4015 4.07861
2 10.7259 35.0597 4.43929
1 9.21346 34.7747 2.94042
2 9.80526 33.9719 2.50445
1 7.9173 35.1105 2.50661
1 7.24082 36.1331 3.23295
2 6.24962 36.487 2.91662
1 7.32823 34.5076 1.28376
3 38.0798 34.9129 5.77362
3 38.2323 33.5583 7.55277
3 38.5592 32.3905 3.75626
3 37.6969 31.3976 5.55658
3 1.15834 33.3764 4.81282
3 0.688708 31.4037 5.65266
3 0.70606 34.4216 5.96108
3 -0.342825 33.6664 7.78067
3 31.981 0.401075 3.67293
3 31.1061 1.07446 5.55952
3 33.3094 37.995 4.45062
3 31.3584 38.2435 5.47932
3 34.4122 38.4523 5.72586
3 33.4592 39.0717 7.6117
3 34.4023 0.8831 5.74701
3 33.3281 0.353908 7.61424
3 32.2727 34.8657 38.3192
3 31.5886 32.9457 37.5494
3 34.947 33.0404 37.9538
3 33.8366 31.1831 38.368
3 34.5067 32.9249 0.505873
3 33.7687 30.9623 -0.332743
3 33.4475 34.2174 0.93228
3 31.5702 33.1441 0.590031
3 37.5066 5.91565 4.63952
3 37.7411 7.73058 5.8787
3 37.6375 4.70708 5.87609
3 38.434 5.47023 7.81281
3 0.23075 4.17423 6.14662
3 -0.140559 5.42139 7.93725
3 0.170841 6.5639 3.92853
3 0.607855 7.71079 5.74246
3 3.84441 0.742028 6.23857
3 4.58987 -0.0297588 8.18307
3 3.70371 38.2582 6.18994
3 4.67882 38.7734 8.12998
3 6.36848 38.7065 4.35136
3 6.97741 37.934 6.32081
3 5.01451 1.18408 5.09002
3 6.9022 0.909401 6.20691
3 35.0623 6.47723 38.8123
3 33.2868 7.45032 37.9091
3 32.4856 4.4742 37.9265
3 32.0868 6.57623 37.3317
3 32.6922 4.58328 0.757963
3 30.803 5.41259 -0.0979343
3 33.8428 5.75437 1.08199
3 33.0771 7.75199 0.509066
3 39.4877 35.2061 2.92401
3 34.8243 -0.148397 2.66626
3 35.1504 35.8601 39.2292
3 -0.700632 3.6838 3.16589
3 3.53871 39.288 3.26887
3 35.2892 3.35396 39.3412
4 39.4954 33.9823 4.57077
4 39.361 31.8689 6.76224
4 33.6606 -0.450199 4.36265
4 31.6488 -0.583118 6.73567
4 33.9589 34.2134 39.336
4 32.0309 31.9173 39.3284
4 39.4192 5.04813 4.69445
4 39.4295 7.23901 7.00219
4 4.61357 39.5899 5.02027
4 6.47672 39.6528 7.36132
4 33.8718 4.94765 39.4573
4 31.7889 7.11594 39.4119
1 1.74402 5.21091 32.2543
1 3.05278 4.65484 31.7644
1 3.65448 5.24716 30.6434
2 3.26531 6.21667 30.2266
1 4.70827 4.61856 30.0464
2 5.09975 4.91834 29.0814
1 5.27795 3.48561 30.6404
2 6.18566 3.07331 30.1985
1 4.76045 2.94016 31.8301
1 3.6503 3.53963 32.3906
2 3.22151 3.12284 33.3099
1 5.3632 1.71701 32.3722
1 0.925506 7.25882 34.6511
1 1.84042 8.03932 35.4589
1 2.20916 9.31528 35.0781
2 1.72165 9.81275 34.2843
1 3.21772 9.98653 35.7359
2 3.44045 11.016 35.4051
1 3.90314 9.37203 36.7942
2 4.76983 9.85896 37.3055
1 3.5597 8.10184 37.2112
1 2.50462 7.44772 36.5732
2 2.26867 6.43975 36.9071
1 4.31441 7.38616 38.2597
1 38.1459 7.29385 34.6581
1 37.1987 8.08228 35.4543
1 37.1233 9.51229 35.3447
2 37.825 10.0865 34.7258
1 36.1515 10.2019 36.083
2 36.1124 11.2785 35.9972
1 35.2964 9.50253 36.9692
2 34.5058 10.0278 37.5511
1 35.461 8.14696 37.1424
1 36.3461 7.41558 36.3578
2 36.3247 6.3417 36.4138
1 34.5702 7.37728 38.0433
1 38.0443 4.36849 31.6317
1 36.9808 3.58957 30.9609
1 36.5876 3.95814 29.6859
2 37.0763 4.83523 29.2254
1 35.5291 3.33756 29.0063
2 35.2635 3.60964 27.996
1 34.8323 2.31951 29.6807
2 33.8964 1.90038 29.2448
1 35.2733 1.86826 30.9284
1 36.3676 2.4767 31.5446
2 36.6265 2.2317 32.5578
1 34.439 0.864324 31.6222
1 7.82783 38.5922 35.0591
1 8.58943 37.826 36.101
1 9.95726 37.9324 36.2376
2 10.4678 38.6324 35.6045
1 10.6822 37.0832 37.0806
2 11.7403 37.1117 37.1032
1 10.0186 36.123 37.8669
2 10.5677 35.458 38.5137
1 8.62665 36.0259 37.7781
1 7.90475 36.8764 36.9064
2 6.85087 36.7213 36.7591
1 7.81962 35.0559 38.5788
1 7.44022 1.15105 34.7734
1 8.11021 2.08002 35.6736
1 9.53125 2.05796 35.7808
2 10.1078 1.3123 35.2081
1 10.1781 2.96864 36.6264
2 11.2523 2.98434 36.6564
1 9.43881 3.77145 37.5511
2 9.99658 4.41081 38.2848
1 8.01972 3.71118 37.5242
1 7.37563 2.90909 36.5651
2 6.32536 2.88255 36.5498
1 7.25083 4.5113 38.4654
1 5.22896 37.9463 31.8544
1 4.63907 36.6875 31.2985
1 5.43581 35.9716 30.3773
2 6.39859 36.3256 30.0759
1 4.93319 34.8069 29.7785
2 5.54521 34.1727 29.1283
1 3.63594 34.3728 30.1466
2 3.23843 33.4574 29.6722
1 2.8463 35.0546 31.0801
1 3.35013 36.2158 31.6195
2 2.71888 36.8217 32.2708
1 1.64353 34.4465 31.6439
1 6.3057 5.15692 1.95364
1 6.73389 4.63225 3.2452
1 7.70999 5.33482 4.02169
2 8.20771 6.25737 3.68266
1 8.17464 4.81077 5.20507
2 8.97393 5.30947 5.74608
1 7.63937 3.60869 5.68683
2 8.01632 3.1774 6.62804
1 6.65693 2.91857 4.9704
1 6.16603 3.45837 3.77047
2 5.28863 2.98005 3.29464
1 6.17846 1.62025 5.43337
1 4.40403 7.46488 1.11418
1 3.67795 8.17456 2.14782
1 4.10844 9.45348 2.60095
2 4.859 9.99855 2.08605
1 3.5242 10.0321 3.71957
2 3.8449 11.0434 4.0683
1 2.47743 9.34687 4.34545
2 2.041 9.76344 5.20625
1 1.99463 8.08873 3.88576
1 2.58727 7.54307 2.74321
2 2.2339 6.62412 2.36098
1 0.833079 7.48602 4.52198
1 1.72545 32.1847 34.0454
1 2.94103 31.5471 34.6777
1 3.66336 30.5828 33.9474
2 3.34634 30.3175 32.9908
1 4.8889 30.1195 34.4345
2 5.45772 29.4257 33.8441
1 5.38908 30.5478 35.6874
2 6.36654 30.2452 35.9348
1 4.6497 31.433 36.4752
1 3.43493 31.9541 35.9446
2 2.93389 32.7054 36.5132
1 5.20429 32.0071 37.7055
1 38.0655 34.5786 31.7018
1 37.0613 35.3945 30.9481
1 36.7212 35.0316 29.6421
2 37.2219 34.2072 29.1618
1 35.7035 35.6461 28.9649
2 35.4008 35.2524 28.0396
1 35.0768 36.7824 29.4967
2 34.2719 37.2133 28.9549
1 35.358 37.1869 30.7926
1 36.321 36.4364 31.5517
2 36.5053 36.6403 32.6111
1 34.5407 38.1756 31.5077
1 32.0652 1.78376 33.5349
1 31.7391 3.19251 33.9362
1 31.2161 4.15053 33.0302
2 30.9561 3.87131 32.0046
1 31.0125 5.4457 33.4516
2 30.6844 6.24598 32.7834
1 31.2851 5.78688 34.7661
2 31.2109 6.8223 35.0788
1 31.7452 4.85797 35.6941
1 31.9534 3.5256 35.2995
2 32.3012 2.8398 36.0773
1 32.0823 5.30873 37.052
3 1.33096 4.89535 33.425
3 1.01759 5.92584 31.5081
3 0.883665 5.98392 34.6959
3 0.122263 7.86207 33.8292
3 38.224 6.03582 34.8062
3 38.8707 7.85712 33.7664
3 38.8671 3.76124 32.407
3 38.0802 5.64842 31.5273
3 6.54913 38.613 35.1322
3 8.44574 39.3224 34.1671
3 6.15188 1.07575 34.7161
3 8.10843 0.377217 34.0125
3 5.04647 1.29551 33.5295
3 6.21081 1.05916 31.7066
3 4.44859 38.8128 32.4299
3 6.49504 38.1098 31.9509
3 5.54521 4.45246 1.22753
3 6.70558 6.29674 1.56337
3 3.7895 6.64087 0.349282
3 5.67598 7.55041 1.0728
3 3.68858 6.54652 38.9733
3 5.55507 7.56578 38.4056
3 5.98776 4.54367 38.3332
3 7.84278 5.20315 39.3498
3 0.912304 32.8741 34.7579
3 1.51763 32.0699 32.7751
3 0.809603 35.1326 32.3243
3 1.51533 33.1746 31.5828
3 38.1275 34.6441 32.9727
3 38.9272 33.9008 31.0453
3 38.1879 33.4041 34.1252
3 38.967 31.5163 33.3172
3 35.0181 38.897 32.4483
3 33.3214 38.3249 31.1341
3 34.9723 0.0435095 32.4461
3 33.1699 0.820246 31.3899
3 32.7803 1.09382 34.3129
3 31.8522 1.34586 32.3628
3 32.643 38.2337 34.5022
3 30.942 38.5946 33.2252
3 4.85463 33.4706 1.20747
3 6.02081 31.585 0.798737
3 6.08832 34.6057 1.08786
3 8.09567 33.7918 0.508268
3 6.57411 35.1449 38.5795
3 8.39167 34.1087 39.1952
3 4.46651 32.681 38.485
3 6.46113 32.0136 37.8641
3 39.5013 3.08133 35.1717
3 3.645 39.2305 35.4291
3 3.60939 3.37687 39.2651
3 -0.0763272 35.9702 35.2709
3 35.0003 -0.748379 35.7884
3 3.53413 35.616 39.4391
4 -0.681125 4.76096 34.0367
4 -0.702375 7.00556 32.0428
4 5.10878 -0.713956 34.1097
4 7.41188 -0.615167 32.2866
4 4.6731 4.94676 -0.569337
4 6.93424 6.97199 -0.465504
4 -0.333611 34.383 33.9674
4 -0.325515 32.2737 31.7219
4 33.8794 -0.710687 34.048
4 31.845 39.7189 31.7034
4 5.07035 34.1717 -0.739025
4 7.44147 32.2395 -0.726811
2 3.95103 39.0137 36.3171
2 2.82965 38.8859 35.0364
2 34.5371 0.383251 1.8997
2 35.7437 -0.436382 2.65765
2 35.8783 3.26229 38.5829
2 35.5093 2.83921 -0.279283
2 -0.705814 3.94489 2.23293
2 -0.58108 2.77553 3.47258
2 3.63987 36.5715 39.2825
2 2.6636 35.2396 39.2815
2 38.9118 35.982 2.90875
2 -0.275816 35.0447 2.18558
2 2.70868 -0.670643 3.14697
2 3.87599 38.7152 2.56558
2 0.0546666 35.8377 36.2126
2 0.0816853 36.8779 34.953
2 35.7015 36.0542 -0.445296
2 35.3361 36.1965 38.3466
2 35.8905 -0.390191 35.759
2 34.6811 39.4763 36.6296
2 3.8909 2.47557 39.4717
2 2.6805 3.52571 39.0437
2 38.5973 2.77543 35.3297
2 -0.117911 2.81565 35.7219
1 37.1172 25.2321 11.7484
1 35.8101 24.6686 11.3265
1 35.0271 25.267 10.3007
2 35.3856 26.1756 9.76763
1 33.7826 24.7831 9.96547
2 33.2729 25.1949 9.12676
1 33.2875 23.645 10.6065
2 32.3533 23.2289 10.2988
1 34.0581 23.0278 11.6323
1 35.3372 23.5198 11.9925
2 35.9359 23.0813 12.7352
1 33.5804 21.7405 12.2172
1 37.7866 27.3897 14.0252
1 36.7696 28.1494 14.8431
1 36.4143 29.4431 14.4903
2 36.9249 29.9128 13.648
1 35.4803 30.1706 15.2318
2 35.2721 31.2248 14.9765
1 34.8002 29.5791 16.2697
2 34.0536 30.0981 16.8498
1 35.0724 28.2512 16.5845
1 36.0443 27.5408 15.8579
2 36.2316 26.5136 16.139
1 34.3643 27.5751 17.6656
1 0.697135 27.6514 14.0813
1 1.72429 28.3729 14.7967
1 2.14943 29.633 14.3488
2 1.64761 30.0881 13.5144
1 3.23648 30.3017 14.9222
2 3.56295 31.2619 14.5094
1 3.91452 29.7554 16.0145
2 4.69005 30.3113 16.5268
1 3.56368 28.4485 16.4483
1 2.48734 27.7559 15.8433
2 2.22482 26.7808 16.1758
1 4.3076 27.7892 17.5412
1 0.771223 24.5641 11.1862
1 1.80019 23.8052 10.4343
1 2.16619 24.1821 9.11651
2 1.75594 25.0077 8.60321
1 3.09726 23.4156 8.39642
2 3.41201 23.7438 7.40973
1 3.7035 22.33 9.00654
2 4.4981 21.8376 8.49139
1 3.37687 21.9348 10.3374
1 2.37529 22.6629 11.0017
2 2.13618 22.3622 11.992
1 4.17492 20.9127 11.0741
1 31.4231 17.7867 14.7453
1 30.7096 16.8864 15.7081
1 29.2931 16.9428 15.8174
2 28.6916 17.6275 15.2485
1 28.6431 16.0937 16.6994
2 27.586 16.1249 16.7999
1 29.3327 15.1424 17.4792
2 28.8084 14.5366 18.2249
1 30.736 15.0663 17.333
1 31.4273 15.9705 16.4776
2 32.5292 15.8681 16.4054
1 31.4798 14.1264 18.1804
1 31.4344 20.8893 14.5803
1 30.7071 21.7581 15.5206
1 29.302 21.6773 15.6004
2 28.7241 20.9031 15.1032
1 28.6614 22.4643 16.6013
2 27.5778 22.4987 16.6827
1 29.3908 23.3712 17.4172
2 28.8344 24.0409 18.0684
1 30.7346 23.5053 17.2662
1 31.4187 22.6427 16.3559
2 32.517 22.7514 16.244
1 31.5243 24.4588 18.0496
1 33.9747 17.5048 11.4664
1 34.5942 16.3385 10.846
1 33.974 15.6625 9.73032
2 33.0965 16.0411 9.23001
1 34.5599 14.533 9.18195
2 34.0598 14.0093 8.37463
1 35.7223 14.0153 9.75094
2 36.093 13.0478 9.40228
1 36.3329 14.653 10.8533
1 35.8076 15.8508 11.347
2 36.2571 16.3576 12.192
1 37.5017 14.0339 11.4941
1 31.8906 24.7817 21.2888
1 31.1981 23.9245 22.2678
1 29.8013 23.8923 22.3197
2 29.1955 24.5389 21.6871
1 29.1621 23.1001 23.2343
2 28.0867 23.176 23.343
1 29.8766 22.2341 24.071
2 29.3067 21.6186 24.753
1 31.2747 22.172 24.0023
1 31.9545 23.0887 23.138
2 33.0394 23.0473 23.0349
1 32.0032 21.1562 24.8036
1 33.9691 27.3624 21.4956
1 34.7146 28.065 22.5721
1 34.4338 29.4348 22.7776
2 33.6401 30.0069 22.258
1 35.0991 30.1572 23.7919
2 34.9135 31.1749 24.0117
1 36.1573 29.5632 24.4517
2 36.7497 30.1514 25.1309
1 36.4907 28.2235 24.1877
1 35.7209 27.4619 23.3134
2 35.9912 26.4335 23.0567
1 37.6251 27.606 24.9463
1 38.0383 11.4083 14.6004
1 37.1082 10.6266 15.4584
1 36.8017 9.33826 15.0977
2 37.2997 8.8256 14.2426
1 35.8024 8.67295 15.7949
2 35.5732 7.67795 15.4749
1 35.0702 9.30325 16.8047
2 34.1961 8.84218 17.2684
1 35.4534 10.5697 17.2255
1 36.4685 11.2537 16.56
2 36.6724 12.2973 16.7922
1 34.6064 11.2999 18.18
1 1.32394 13.9556 11.9573
1 2.50998 14.5438 11.3267
1 3.1612 13.8153 10.3153
2 2.83196 12.8356 9.99107
1 4.308 14.368 9.71451
2 4.88023 13.8137 8.96494
1 4.80349 15.6156 10.1164
2 5.75196 15.9556 9.70523
1 4.15506 16.3294 11.1481
1 2.98441 15.7931 11.7459
2 2.43872 16.3135 12.4429
1 4.73204 17.6258 11.6246
1 7.23239 21.4214 13.9673
1 7.8869 22.4228 14.8644
1 9.29532 22.6065 14.8004
2 9.90942 22.0965 14.0404
1 9.92219 23.5043 15.6601
2 11.0055 23.5968 15.6396
1 9.18104 24.2224 16.5946
2 9.71482 24.7825 17.2809
1 7.76639 24.0399 16.7026
1 7.12254 23.1598 15.7895
2 6.08508 23.0115 15.8691
1 6.98538 24.8737 17.6598
3 37.6534 24.8531 12.8585
3 37.6504 26.1478 11.0599
3 37.8902 26.1252 14.1828
3 38.621 28.0098 13.2451
3 0.580592 26.393 14.3129
3 -0.0630554 28.2248 13.217
3 0.125197 24.0048 12.1104
3 0.569091 25.8119 10.9422
3 32.6643 18.0206 14.9247
3 30.8142 18.4482 13.8454
3 32.7309 20.9578 14.5585
3 30.7996 20.1052 13.8155
3 33.8727 21.3942 13.4399
3 32.8199 20.9692 11.549
3 34.6035 18.3256 12.2311
3 32.7192 17.5721 11.4508
3 33.1627 24.8728 21.1938
3 31.1684 25.4909 20.5014
3 34.2322 26.1373 21.2663
3 33.0803 28.0005 20.8002
3 35.0177 26.9588 18.546
3 33.0827 27.5276 17.6807
3 32.7738 24.4853 17.9326
3 30.9459 25.25 18.8998
3 38.1308 12.6648 14.7375
3 38.6877 10.8289 13.6556
3 38.2755 14.7239 12.2189
3 37.7095 12.7657 11.4332
3 1.00128 14.2119 13.1731
3 0.685578 13.0697 11.3142
3 0.771239 12.9048 14.2319
3 -0.0225729 10.9323 13.5769
3 4.01084 18.4504 12.2827
3 5.99656 17.8151 11.5025
3 3.68617 20.2343 12.0223
3 5.44127 20.877 10.9042
3 5.97562 21.4287 13.9401
3 7.88799 20.6005 13.2825
3 5.8371 18.201 14.5871
3 7.2213 17.9217 12.8958
3 34.8647 12.0517 20.7259
3 32.96 11.1273 21.2142
3 32.971 14.2494 21.3946
3 31.1181 13.2553 20.719
3 32.741 14.0319 18.0654
3 30.9076 13.402 19.0654
3 35.1075 12.007 19.0998
3 33.326 11.3079 18.0286
3 -0.507992 23.424 15.0534
3 35.6189 19.0438 15.1014
3 35.6571 23.8492 18.9438
3 39.0374 15.4861 15.1768
3 3.2559 20.2442 15.2167
3 35.2195 15.249 19.1929
4 -0.752804 24.9531 13.7254
4 39.4706 27.2363 11.4859
4 33.9414 19.3234 13.8902
4 31.626 19.3053 11.9925
4 34.1823 25.2967 19.2907
4 31.7623 27.1921 19.3631
4 39.3566 13.9769 13.7796
4 39.4224 11.7454 11.8199
4 4.73803 19.8078 13.7984
4 7.00202 19.6469 11.6187
4 34.0351 13.665 19.6737
4 31.8635 11.6196 19.5447
1 0.943238 14.1896 27.5469
1 2.05213 14.946 28.2132
1 2.52474 14.5589 29.4717
2 2.07561 13.805 30.0682
1 3.65699 15.1826 30.017
2 4.04028 14.7977 30.9664
1 4.35283 16.121 29.2815
2 5.18658 16.5806 29.7164
1 3.89095 16.5988 28.0292
1 2.71012 16.0148 27.5465
2 2.27386 16.385 26.6082
1 4.59519 17.7213 27.3613
1 1.53152 11.8163 25.3833
1 2.83881 11.3049 24.8639
1 3.60086 10.4012 25.6376
2 3.19117 10.0498 26.5802
1 4.87665 10.0077 25.2039
2 5.48645 9.36519 25.8233
1 5.40162 10.5267 23.9923
2 6.38635 10.1841 23.6822
1 4.6299 11.4119 23.2082
1 3.36068 11.7676 23.6395
2 2.76645 12.4239 23.0618
1 5.08204 11.811 21.8292
1 37.7552 11.211 24.9565
1 36.594 10.5482 24.3546
1 35.9786 9.48342 24.985
2 36.4013 8.98136 25.871
1 34.7938 8.93645 24.4776
2 34.2865 8.13303 25.0091
1 34.2444 9.4517 23.2808
2 33.4012 9.01659 22.7904
1 34.8508 10.5607 22.6313
1 36.0134 11.0915 23.1965
2 36.4446 12.0289 22.761
1 34.2015 11.2369 21.4612
1 38.1199 14.2738 27.7351
1 37.2039 15.1413 28.4928
1 37.1196 15.0327 29.9034
2 37.7193 14.2407 30.4077
1 36.1782 15.7668 30.6181
2 36.1807 15.5891 31.6669
1 35.3443 16.7067 29.9726
2 34.7517 17.4253 30.5618
1 35.4494 16.8577 28.5802
1 36.3419 16.0275 27.8465
2 36.3209 16.0775 26.7865
1 34.6148 17.8544 27.8407
1 6.98537 21.517 24.6218
1 7.68753 22.4401 23.7649
1 9.1018 22.5725 23.8699
2 9.64783 21.9934 24.5941
1 9.73204 23.5355 23.0887
2 10.8145 23.7166 23.1589
1 9.03888 24.298 22.1197
2 9.5894 24.986 21.4686
1 7.6653 24.1419 22.003
1 7.00906 23.1493 22.7638
2 5.93272 22.9743 22.6162
1 6.91759 25.0276 21.0349
1 7.35993 18.3104 24.3075
1 8.12996 17.4386 23.3534
1 9.53481 17.3713 23.3563
2 10.071 17.9016 24.1089
1 10.1857 16.5143 22.4765
2 11.25 16.5645 22.3965
1 9.43384 15.67 21.6089
2 9.92186 14.9971 20.9256
1 8.06682 15.7832 21.5557
1 7.40949 16.7115 22.4004
2 6.27535 16.7466 22.3345
1 7.22993 14.8371 20.7374
1 4.83057 21.8772 27.0233
1 4.30664 23.1299 27.6266
1 4.90883 23.6944 28.7711
2 5.87222 23.3101 29.1855
1 4.32901 24.8344 29.3652
2 4.83371 25.3037 30.1927
1 3.18231 25.4036 28.8509
2 2.85343 26.3127 29.2634
1 2.57055 24.8492 27.7106
1 3.1358 23.721 27.1027
2 2.66631 23.3119 26.2205
1 1.31823 25.3891 27.1921
1 6.97976 14.2188 17.7317
1 7.60126 14.8242 16.553
1 8.80281 14.3038 16.0086
2 9.39469 13.5372 16.4736
1 9.31982 14.8385 14.839
2 10.2631 14.5015 14.3959
1 8.69228 15.9202 14.2297
2 9.12942 16.37 13.3126
1 7.46096 16.4265 14.7265
1 6.93338 15.861 15.8888
2 5.99753 16.2484 16.2628
1 6.7951 17.5529 14.0304
1 4.59269 11.8351 17.6013
1 3.81577 11.1215 16.5689
1 4.0784 9.7818 16.3195
2 4.90297 9.3095 16.8262
1 3.35869 9.07009 15.3813
2 3.64336 8.03721 15.0767
1 2.25431 9.61627 14.7557
2 1.65966 8.95173 14.135
1 1.92701 10.9681 14.9796
1 2.7262 11.7262 15.9031
2 2.46239 12.7804 16.1125
1 0.863154 11.6279 14.1768
1 0.54187 27.8923 24.3162
1 1.50806 28.6236 23.4653
1 1.8555 29.9718 23.7637
2 1.23094 30.512 24.4897
1 2.87012 30.6006 23.0441
2 3.11769 31.6566 23.2205
1 3.5865 29.9197 22.0729
2 4.35674 30.4557 21.5688
1 3.26816 28.6099 21.7072
1 2.20938 27.9687 22.4172
2 1.91463 26.9663 22.096
1 4.13089 27.8684 20.7676
1 37.4334 25.4521 27.2683
1 36.2322 24.831 27.8691
1 35.6757 25.3506 29.0427
2 36.1388 26.2425 29.4973
1 34.5088 24.7214 29.6297
2 34.1049 25.0743 30.5616
1 33.9602 23.5955 29.0476
2 33.1292 23.0495 29.5768
1 34.4777 23.0865 27.8455
1 35.6349 23.6887 27.2903
2 36.0704 23.2778 26.3933
1 33.9321 21.8087 27.3192
1 31.6475 17.8922 24.8484
1 30.8954 16.9196 23.9903
1 29.4992 16.7263 24.131
2 28.9086 17.3188 24.8274
1 28.8037 15.8501 23.2997
2 27.7207 15.8211 23.3313
1 29.5222 15.0047 22.397
2 28.9294 14.3018 21.8002
1 30.9328 15.0283 22.3539
1 31.5969 16.0942 23.0668
2 32.6784 16.1931 22.9507
1 31.7157 14.1478 21.4504
3 0.826201 14.2402 26.2628
3 0.173057 13.4054 28.2461
3 1.0607 12.9311 24.9377
3 0.926823 11.1724 26.298
3 38.4604 12.0117 24.2724
3 37.9723 11.0638 26.1828
3 38.2273 14.4658 26.4722
3 38.7862 13.3745 28.3255
3 5.71366 21.468 24.6304
3 7.66805 20.6869 25.3197
3 6.10476 18.4263 24.096
3 7.90753 19.0388 25.2041
3 3.91802 18.5004 26.6068
3 5.84805 17.8523 27.4918
3 4.55681 21.5876 25.7918
3 5.74357 21.2676 27.6465
3 5.71277 14.2777 17.9392
3 7.69573 13.4434 18.4919
3 4.39131 13.0927 17.7537
3 5.45475 11.1947 18.3153
3 4.2461 12.3264 21.0473
3 6.30321 11.8789 21.5533
3 5.99398 15.0972 20.5698
3 7.70319 13.716 20.3485
3 0.515983 26.6397 24.2036
3 -0.124287 28.475 25.229
3 0.493264 24.6329 26.6371
3 1.08816 26.6194 27.2734
3 37.7273 25.1457 26.0746
3 38.1497 26.3222 27.872
3 37.7845 26.3449 24.8823
3 38.5417 28.3676 25.4653
3 34.2884 21.3848 26.1627
3 33.0618 21.1333 27.9576
3 35.2005 18.6334 27.0325
3 33.3441 17.8833 27.9452
3 32.9369 17.9743 24.7221
3 31.0317 18.733 25.6266
3 33.2975 21.223 24.9042
3 31.3665 20.3416 25.5538
3 3.66456 26.9961 18.3144
3 5.5882 27.8818 17.6086
3 5.70963 24.8079 17.6503
3 7.57236 25.6692 18.4632
3 5.64438 25.0413 21.0922
3 7.54859 25.6535 20.0922
3 3.56947 27.085 19.91
3 5.42949 27.9371 20.8077
3 39.041 14.846 23.416
3 3.12108 19.0951 23.7008
3 2.84688 14.9792 20.0192
3 -0.593013 23.7376 23.818
3 35.7329 19.0688 23.9983
3 3.23244 23.7168 19.3616
4 39.4789 13.5725 25.0339
4 -0.774887 11.6498 27.3806
4 4.67783 19.6246 24.986
4 6.96862 19.621 27.0882
4 4.57007 13.8689 19.6887
4 6.85781 11.8613 19.6054
4 -0.734756 25.275 25.1353
4 -0.709432 27.5812 27.1172
4 34.2471 19.4246 25.4433
4 32.0086 19.3981 27.4167
4 4.51397 25.3137 19.2833
4 6.73796 27.4628 19.2711
2 3.16308 18.2493 23.2404
2 2.27653 19.4885 23.9579
2 36.3452 19.6803 15.0992
2 35.7184 18.2293 15.6015
2 35.8577 15.1635 18.4552
2 34.9524 16.1341 19.509
2 38.6452 15.4425 16.0596
2 39.4249 16.3003 14.8207
2 2.94712 23.229 18.5767
2 2.8131 23.5651 20.2183
2 0.217002 22.7937 14.8844
2 39.0866 23.1276 15.5697
2 2.3904 20.5832 14.9602
2 3.41681 20.1314 16.1604
2 -0.702636 23.8469 22.8754
2 -0.341297 22.8872 24.184
2 35.8311 23.3905 18.1123
2 36.1613 23.5952 19.7411
2 36.2855 19.7793 23.6634
2 35.9695 18.1626 23.7635
2 2.52533 15.5739 19.322
2 2.45099 14.978 20.8959
2 39.1333 14.4452 22.5487
2 38.8238 15.7906 23.5314
1 27.3203 0.955311 24.6135
1 27.9795 2.07592 23.8992
1 29.2436 2.54397 24.2432
2 29.8395 2.01033 24.9446
1 29.8473 3.59615 23.579
2 30.8409 3.94003 23.9165
1 29.2183 4.25412 22.5513
2 29.6428 5.14011 22.0048
1 27.9312 3.80138 22.1226
1 27.3193 2.74724 22.8413
2 26.3508 2.42452 22.5173
1 27.2063 4.53509 21.0517
1 25.0499 0.84248 26.9428
1 24.3121 1.87154 27.6991
1 24.4553 1.96593 29.09
2 25.1584 1.32044 29.5567
1 23.6697 2.86291 29.8191
2 23.8188 2.93565 30.8818
1 22.724 3.66201 29.1841
2 22.2044 4.40626 29.7641
1 22.6143 3.63245 27.7828
1 23.4015 2.71012 27.0281
2 23.3282 2.69302 25.9339
1 21.6078 4.48952 27.1534
1 25.292 37.3168 26.9665
1 24.7833 36.0484 27.4804
1 25.6498 35.1995 28.2214
2 26.6002 35.5666 28.5771
1 25.2441 33.9312 28.59
2 25.9299 33.2906 29.1453
1 23.9747 33.4866 28.2073
2 23.6551 32.4748 28.5283
1 23.0815 34.2892 27.5032
1 23.4879 35.6099 27.168
2 22.7805 36.2796 26.6459
1 21.7479 33.7591 27.2125
1 27.553 37.511 24.5472
1 28.1447 36.295 23.9111
1 29.2679 35.6164 24.4081
2 29.8021 36.0627 25.2537
1 29.7584 34.4765 23.7853
2 30.5997 33.9943 24.1892
1 29.0823 33.9587 22.6547
2 29.4995 33.0737 22.2414
1 27.9051 34.5621 22.2002
1 27.4053 35.6884 22.86
2 26.5117 36.1775 22.4814
1 27.1611 33.9677 21.0638
1 24.8988 7.12048 17.1589
1 24.2367 7.80481 16.049
1 24.7857 8.95501 15.4318
2 25.7341 9.32607 15.7601
1 24.1142 9.60864 14.4083
2 24.602 10.4549 13.9429
1 22.9277 9.11517 13.8745
2 22.4274 9.61837 13.0661
1 22.375 7.96368 14.4685
1 23.0188 7.32032 15.5419
2 22.6299 6.40101 15.9383
1 21.1617 7.32156 13.9045
1 24.996 6.95261 21.2313
1 24.4556 7.60521 22.4508
1 24.7919 8.93803 22.7912
2 25.5435 9.49482 22.2141
1 24.2652 9.53111 23.9541
2 24.685 10.4851 24.2675
1 23.3869 8.83579 24.7834
2 23.0073 9.32797 25.625
1 22.9329 7.55821 24.3647
1 23.5436 6.90148 23.2705
2 23.1537 5.96163 22.9207
1 21.8088 6.89316 25.0845
1 27.0066 4.59333 17.0831
1 27.5997 3.93306 15.9261
1 28.8566 4.36988 15.4311
2 29.4049 5.25245 15.7922
1 29.4935 3.61546 14.4446
2 30.4666 3.95347 14.0843
1 28.884 2.48874 13.8755
2 29.3254 1.97202 13.0442
1 27.5554 2.1236 14.2632
1 26.9926 2.79298 15.3818
2 26.0151 2.48994 15.7234
1 26.8676 0.97962 13.5649
1 17.498 6.99826 25.1518
1 16.2265 7.57731 24.6691
1 15.4642 8.35899 25.5487
2 15.8439 8.6501 26.5463
1 14.2306 8.88061 25.1758
2 13.6471 9.48412 25.8072
1 13.6597 8.52261 23.9699
2 12.6318 8.81569 23.7843
1 14.407 7.74891 23.0545
1 15.7248 7.30859 23.388
2 16.287 6.65551 22.725
1 13.7612 7.29228 21.8234
1 18.526 4.00379 27.71
1 17.779 3.03409 28.4968
1 17.9755 2.89191 29.9005
2 18.7088 3.52064 30.436
1 17.1484 2.04537 30.6571
2 17.1943 1.96231 31.726
1 16.1678 1.25418 30.0291
2 15.5139 0.633523 30.6119
1 15.9949 1.3142 28.6288
1 16.7774 2.24346 27.8922
2 16.6624 2.34425 26.7945
1 14.9694 0.518653 27.9249
1 24.3629 1.17423 11.3346
1 23.6409 2.27339 10.7197
1 23.794 2.48262 9.32722
2 24.4667 1.87398 8.71695
1 23.076 3.50443 8.68247
2 23.2449 3.75789 7.64827
1 22.1874 4.28288 9.40743
2 21.5279 5.00735 8.90191
1 22.0253 4.10936 10.8006
1 22.7425 3.07555 11.4381
2 22.6729 3.01718 12.5064
1 20.9922 4.89342 11.5294
1 26.8577 37.4872 13.2553
1 27.4299 36.1787 13.7904
1 28.3307 35.4444 12.9837
2 28.7369 35.8356 12.049
1 28.7447 34.1869 13.3715
2 29.3867 33.6278 12.7213
1 28.273 33.6494 14.5898
2 28.649 32.6673 14.8435
1 27.4753 34.3987 15.4589
1 27.0053 35.6569 15.0153
2 26.347 36.1952 15.6384
1 27.0564 33.8011 16.754
1 24.7313 31.7155 20.9864
1 24.1078 31.0323 22.1253
1 24.4199 29.6838 22.4222
2 25.2428 29.2109 21.878
1 23.8252 29.0274 23.4923
2 24.0252 27.9786 23.676
1 22.8072 29.6235 24.2109
2 22.334 29.0806 24.9948
1 22.4448 30.947 23.9336
1 23.1039 31.6526 22.895
2 22.8594 32.6959 22.7539
1 21.3877 31.6133 24.6988
3 26.027 0.825624 24.5343
3 28.0343 0.123705 25.26
3 24.9541 0.751084 25.6595
3 25.8029 -0.000757066 27.5757
3 24.5476 38.1414 26.3618
3 26.5617 37.4948 26.9536
3 26.8205 38.3094 23.8913
3 27.6892 37.6294 25.8228
3 24.2079 6.4672 18.0141
3 26.1805 7.10006 17.2317
3 24.7642 5.6857 20.9693
3 25.6793 7.66883 20.4423
3 25.9245 4.43272 20.9183
3 27.852 5.28867 20.2817
3 26.3265 3.93742 17.8911
3 27.2714 5.83034 17.2918
3 18.2878 6.43571 24.3412
3 17.7929 7.05221 26.3943
3 18.4856 3.91345 26.4314
3 19.2171 4.97587 28.2617
3 21.4435 4.48349 25.8582
3 20.7892 5.13211 27.9165
3 21.5003 5.6872 24.8284
3 21.0721 7.54429 25.8798
3 24.3612 1.02023 12.6157
3 25.0904 0.387275 10.5817
3 25.5858 0.909989 13.5897
3 27.5262 0.18137 12.8035
3 26.2587 38.3197 13.9882
3 26.8827 37.6977 12.0033
3 23.7315 38.6133 11.7099
3 25.6498 37.8625 10.9398
3 26.5582 34.5379 17.646
3 27.1543 32.5545 16.9773
3 25.9192 34.2332 20.9182
3 27.7311 33.0847 20.3497
3 24.7131 32.9934 20.8901
3 25.395 31.0169 20.1365
3 23.9727 32.6874 17.9089
3 25.0608 30.8243 18.4522
3 17.8534 4.40172 12.2794
3 17.1194 6.42746 11.612
3 17.9235 6.53886 14.6642
3 17.3088 7.59255 12.8512
3 21.0152 6.02901 13.9436
3 20.3378 8.02757 13.2335
3 21.0001 4.92706 12.8191
3 20.1988 5.70393 10.9249
3 23.7766 39.149 23.2915
3 23.2617 3.62367 18.8628
3 19.2712 3.6435 23.3013
3 23.2441 39.1739 14.8441
3 23.9066 35.6905 18.7972
3 19.0067 3.57797 15.1659
4 25.246 39.3839 24.7915
4 27.453 39.4218 26.8347
4 24.9204 4.81344 19.0517
4 27.1621 6.89795 19.1066
4 19.5229 4.93151 24.9563
4 19.6354 6.84652 27.25
4 24.7035 39.5185 13.3108
4 26.7472 39.6464 11.1743
4 25.0552 34.0314 19.0205
4 27.0066 31.7496 18.9299
4 19.1086 5.11502 13.754
4 19.0516 7.35566 11.6896
1 11.0719 38.5156 14.7236
1 10.3304 37.5598 15.5935
1 8.95518 37.4004 15.441
2 8.38721 38.0193 14.7902
1 8.29375 36.3248 16.0686
2 7.2561 36.1345 15.8962
1 8.99219 35.5208 17.0012
2 8.45601 34.6374 17.42
1 10.3414 35.7332 17.2014
1 11.0183 36.7343 16.4769
2 12.0818 36.8641 16.6447
1 11.1197 34.8959 18.1388
1 13.6044 37.7694 11.6947
1 14.154 36.5428 11.092
1 13.5134 35.9193 9.99938
2 12.7318 36.44 9.51293
1 13.9354 34.7104 9.51555
2 13.4208 34.2467 8.67406
1 15.0428 34.0656 10.0797
2 15.3457 33.0949 9.67885
1 15.738 34.6737 11.1713
1 15.2513 35.9231 11.7105
2 15.7295 36.3829 12.576
1 16.8567 34.0136 11.8064
1 13.3977 1.61964 11.9652
1 13.9994 2.81651 11.275
1 13.3514 3.3977 10.1587
2 12.4233 2.97653 9.79573
1 13.8526 4.56961 9.59348
2 13.3104 5.06735 8.78524
1 15.0298 5.1249 10.0786
2 15.425 5.9787 9.56647
1 15.7227 4.54511 11.1605
1 15.2033 3.35156 11.7249
2 15.7314 2.91685 12.5908
1 16.9655 5.15278 11.6727
1 11.2553 1.13721 14.314
1 10.5967 2.22925 15.0789
1 9.27568 2.56285 14.7817
2 8.744 2.04792 13.9651
1 8.63225 3.59309 15.5042
2 7.58668 3.83651 15.2759
1 9.33936 4.29791 16.5035
2 8.88936 5.1406 17.0138
1 10.6944 4.01165 16.7607
1 11.3039 2.97819 16.0292
2 12.3782 2.72449 16.1885
1 11.425 4.81511 17.8132
1 14.1198 32.1057 21.2891
1 14.9219 31.3521 22.2758
1 14.6895 29.9692 22.448
2 13.9537 29.4184 21.8284
1 15.3893 29.1934 23.3785
2 15.2891 28.1134 23.4607
1 16.3683 29.8149 24.1565
2 16.979 29.1744 24.8502
1 16.566 31.1851 24.0457
1 15.8887 31.9478 23.059
2 16.0844 33.0166 23.0038
1 17.6009 31.7956 24.9418
1 14.057 31.8424 17.9893
1 14.8131 31.0794 16.9867