Created on Thu Jan 23 12:27:47 2025 

        2592 atoms
        3384 bonds
        7968 angles
       16032 dihedrals
        2160 impropers

           6 atom types
          10 bond types
          14 angle types
           7 dihedral types
           1 improper types
           0.000000  52.630000 xlo xhi
           0.000000  52.630000 ylo yhi
           0.000000  52.630000 zlo zhi
           0.000000   0.000000   0.000000 xy xz yz

Masses

    1    63.546000000 # Cu3f2
    2    15.999400000 # O_2
    3    14.006700000 # N_R
    4    12.010700000 # C_R
    5     1.007940000 # H_
    6    12.010700000 # C_3

Bond Coeffs

    1       45.683534        2.819477  # Cu3f2 Cu3f2
    2      185.539128        1.933501  # Cu3f2 O_2
    3      714.557442        1.269010  # O_2 C_R
    4      663.718927        1.345073  # N_R C_R
    5      529.724731        1.450075  # N_R C_3
    6      391.669513        1.458000  # C_R C_R
    7      462.655054        1.379256  # C_R C_R
    8      357.440381        1.081418  # C_R H_
    9      349.795899        1.514000  # C_3 C_3
   10      331.069389        1.109401  # C_3 H_

Angle Coeffs

    1                      fourier       57.339338        0.343737        0.374972        0.281246 # Cu3f2 Cu3f2 O_2
    2                      fourier      148.822143        0.343737        0.374972        0.281246 # O_2 Cu3f2 O_2
    3              cosine/periodic       61.771810              -1               3 # Cu3f2 O_2 C_R
    4              cosine/periodic      120.000516              -1               3 # C_R N_R C_R
    5              cosine/periodic      106.782348              -1               3 # C_R N_R C_3
    6              cosine/periodic      206.778426              -1               3 # O_2 C_R O_2
    7              cosine/periodic      137.714246              -1               3 # O_2 C_R C_R
    8              cosine/periodic      102.183280              -1               3 # C_R C_R C_R
    9              cosine/periodic      111.297508              -1               3 # C_R C_R C_R
   10              cosine/periodic       57.289016              -1               3 # C_R C_R H_
   11              cosine/periodic      153.699352              -1               3 # N_R C_R C_R
   12                      fourier      303.594562        0.343737        0.374972        0.281246 # N_R C_3 C_3
   13                      fourier      214.211821        0.343737        0.374972        0.281246 # C_3 C_3 C_3
   14                      fourier      117.318683        0.343737        0.374972        0.281246 # C_3 C_3 H_

Dihedral Coeffs

    1        6.737110              -1               2 # Cu3f2 O_2 C_R O_2
    2        3.368555              -1               2 # C_R N_R C_R C_R
    3        0.125000               1               3 # C_R N_R C_3 C_3
    4        1.250000              -1               2 # O_2 C_R C_R C_R
    5        0.088292               1               3 # N_R C_3 C_3 C_3
    6        0.117722               1               3 # C_3 C_3 C_3 H_
    7        0.066219               1               3 # C_3 C_3 C_3 C_3

Improper Coeffs

    1        2.000000        1.000000       -1.000000        0.000000               0 # C_R N_R C_R C_3

Pair Coeffs

    1        0.005000        3.113691 # Cu3f2 Cu3f2
    2        0.060000        3.118146 # O_2 O_2
    3        0.069000        3.260689 # N_R N_R
    4        0.105000        3.430851 # C_R C_R
    5        0.044000        2.571134 # H_ H_
    6        0.105000        3.430851 # C_3 C_3

Atoms

       1      444        1     0.00000   26.31500   33.26953   26.31500
       2      444        1     0.00000   26.31500   19.36047   26.31500
       3      444        1     0.00000   26.31500   26.31500   33.26953
       4      444        1     0.00000   26.31500   26.31500   19.36047
       5      444        1     0.00000   33.26953   26.31500   26.31500
       6      444        1     0.00000   19.36047   26.31500   26.31500
       7      444        1     0.00000   26.31500    6.95453    0.00000
       8      444        1     0.00000   26.31500   45.67547    0.00000
       9      444        1     0.00000   26.31500    0.00000    6.95453
      10      444        1     0.00000   26.31500    0.00000   45.67547
      11      444        1     0.00000   33.26953    0.00000    0.00000
      12      444        1     0.00000   19.36047    0.00000    0.00000
      13      444        1     0.00000    0.00000   33.26953    0.00000
      14      444        1     0.00000    0.00000   19.36047    0.00000
      15      444        1     0.00000    0.00000   26.31500    6.95453
      16      444        1     0.00000    0.00000   26.31500   45.67547
      17      444        1     0.00000    6.95453   26.31500    0.00000
      18      444        1     0.00000   45.67547   26.31500    0.00000
      19      444        1     0.00000    0.00000    6.95453   26.31500
      20      444        1     0.00000    0.00000   45.67547   26.31500
      21      444        1     0.00000    0.00000    0.00000   33.26953
      22      444        1     0.00000    0.00000    0.00000   19.36047
      23      444        1     0.00000    6.95453    0.00000   26.31500
      24      444        1     0.00000   45.67547    0.00000   26.31500
      25      444        1     0.00000   26.31500   35.90103   26.31500
      26      444        1     0.00000   26.31500   16.72897   26.31500
      27      444        1     0.00000   26.31500   26.31500   35.90103
      28      444        1     0.00000   26.31500   26.31500   16.72897
      29      444        1     0.00000   35.90103   26.31500   26.31500
      30      444        1     0.00000   16.72897   26.31500   26.31500
      31      444        1     0.00000   26.31500    9.58603    0.00000
      32      444        1     0.00000   26.31500   43.04397    0.00000
      33      444        1     0.00000   26.31500    0.00000    9.58603
      34      444        1     0.00000   26.31500    0.00000   43.04397
      35      444        1     0.00000   35.90103    0.00000    0.00000
      36      444        1     0.00000   16.72897    0.00000    0.00000
      37      444        1     0.00000    0.00000   35.90103    0.00000
      38      444        1     0.00000    0.00000   16.72897    0.00000
      39      444        1     0.00000    0.00000   26.31500    9.58603
      40      444        1     0.00000    0.00000   26.31500   43.04397
      41      444        1     0.00000    9.58603   26.31500    0.00000
      42      444        1     0.00000   43.04397   26.31500    0.00000
      43      444        1     0.00000    0.00000    9.58603   26.31500
      44      444        1     0.00000    0.00000   43.04397   26.31500
      45      444        1     0.00000    0.00000    0.00000   35.90103
      46      444        1     0.00000    0.00000    0.00000   16.72897
      47      444        1     0.00000    9.58603    0.00000   26.31500
      48      444        1     0.00000   43.04397    0.00000   26.31500
      49      444        2     0.00000   26.31500   33.46742   28.24494
      50      444        2     0.00000   26.31500   19.16258   24.38506
      51      444        2     0.00000   26.31500   19.16258   28.24494
      52      444        2     0.00000   26.31500   33.46742   24.38506
      53      444        2     0.00000   28.24494   26.31500   33.46742
      54      444        2     0.00000   24.38506   26.31500   19.16258
      55      444        2     0.00000   28.24494   26.31500   19.16258
      56      444        2     0.00000   24.38506   26.31500   33.46742
      57      444        2     0.00000   33.46742   28.24494   26.31500
      58      444        2     0.00000   19.16258   24.38506   26.31500
      59      444        2     0.00000   19.16258   28.24494   26.31500
      60      444        2     0.00000   33.46742   24.38506   26.31500
      61      444        2     0.00000   33.46742   26.31500   24.38506
      62      444        2     0.00000   19.16258   26.31500   28.24494
      63      444        2     0.00000   19.16258   26.31500   24.38506
      64      444        2     0.00000   33.46742   26.31500   28.24494
      65      444        2     0.00000   26.31500   28.24494   19.16258
      66      444        2     0.00000   26.31500   24.38506   33.46742
      67      444        2     0.00000   26.31500   28.24494   33.46742
      68      444        2     0.00000   26.31500   24.38506   19.16258
      69      444        2     0.00000   28.24494   33.46742   26.31500
      70      444        2     0.00000   24.38506   19.16258   26.31500
      71      444        2     0.00000   28.24494   19.16258   26.31500
      72      444        2     0.00000   24.38506   33.46742   26.31500
      73      444        2     0.00000   26.31500    7.15242    1.92994
      74      444        2     0.00000   26.31500   45.47758   50.70006
      75      444        2     0.00000   26.31500   45.47758    1.92994
      76      444        2     0.00000   26.31500    7.15242   50.70006
      77      444        2     0.00000   28.24494    0.00000    7.15242
      78      444        2     0.00000   24.38506    0.00000   45.47758
      79      444        2     0.00000   28.24494    0.00000   45.47758
      80      444        2     0.00000   24.38506    0.00000    7.15242
      81      444        2     0.00000   33.46742    1.92994    0.00000
      82      444        2     0.00000   19.16258   50.70006    0.00000
      83      444        2     0.00000   19.16258    1.92994    0.00000
      84      444        2     0.00000   33.46742   50.70006    0.00000
      85      444        2     0.00000   33.46742    0.00000   50.70006
      86      444        2     0.00000   19.16258    0.00000    1.92994
      87      444        2     0.00000   19.16258    0.00000   50.70006
      88      444        2     0.00000   33.46742    0.00000    1.92994
      89      444        2     0.00000   26.31500    1.92994   45.47758
      90      444        2     0.00000   26.31500   50.70006    7.15242
      91      444        2     0.00000   26.31500    1.92994    7.15242
      92      444        2     0.00000   26.31500   50.70006   45.47758
      93      444        2     0.00000   28.24494    7.15242    0.00000
      94      444        2     0.00000   24.38506   45.47758    0.00000
      95      444        2     0.00000   28.24494   45.47758    0.00000
      96      444        2     0.00000   24.38506    7.15242    0.00000
      97      444        2     0.00000    0.00000   33.46742    1.92994
      98      444        2     0.00000    0.00000   19.16258   50.70006
      99      444        2     0.00000    0.00000   19.16258    1.92994
     100      444        2     0.00000    0.00000   33.46742   50.70006
     101      444        2     0.00000    1.92994   26.31500    7.15242
     102      444        2     0.00000   50.70006   26.31500   45.47758
     103      444        2     0.00000    1.92994   26.31500   45.47758
     104      444        2     0.00000   50.70006   26.31500    7.15242
     105      444        2     0.00000    7.15242   28.24494    0.00000
     106      444        2     0.00000   45.47758   24.38506    0.00000
     107      444        2     0.00000   45.47758   28.24494    0.00000
     108      444        2     0.00000    7.15242   24.38506    0.00000
     109      444        2     0.00000    7.15242   26.31500   50.70006
     110      444        2     0.00000   45.47758   26.31500    1.92994
     111      444        2     0.00000   45.47758   26.31500   50.70006
     112      444        2     0.00000    7.15242   26.31500    1.92994
     113      444        2     0.00000    0.00000   28.24494   45.47758
     114      444        2     0.00000    0.00000   24.38506    7.15242
     115      444        2     0.00000    0.00000   28.24494    7.15242
     116      444        2     0.00000    0.00000   24.38506   45.47758
     117      444        2     0.00000    1.92994   33.46742    0.00000
     118      444        2     0.00000   50.70006   19.16258    0.00000
     119      444        2     0.00000    1.92994   19.16258    0.00000
     120      444        2     0.00000   50.70006   33.46742    0.00000
     121      444        2     0.00000    0.00000    7.15242   28.24494
     122      444        2     0.00000    0.00000   45.47758   24.38506
     123      444        2     0.00000    0.00000   45.47758   28.24494
     124      444        2     0.00000    0.00000    7.15242   24.38506
     125      444        2     0.00000    1.92994    0.00000   33.46742
     126      444        2     0.00000   50.70006    0.00000   19.16258
     127      444        2     0.00000    1.92994    0.00000   19.16258
     128      444        2     0.00000   50.70006    0.00000   33.46742
     129      444        2     0.00000    7.15242    1.92994   26.31500
     130      444        2     0.00000   45.47758   50.70006   26.31500
     131      444        2     0.00000   45.47758    1.92994   26.31500
     132      444        2     0.00000    7.15242   50.70006   26.31500
     133      444        2     0.00000    7.15242    0.00000   24.38506
     134      444        2     0.00000   45.47758    0.00000   28.24494
     135      444        2     0.00000   45.47758    0.00000   24.38506
     136      444        2     0.00000    7.15242    0.00000   28.24494
     137      444        2     0.00000    0.00000    1.92994   19.16258
     138      444        2     0.00000    0.00000   50.70006   33.46742
     139      444        2     0.00000    0.00000    1.92994   33.46742
     140      444        2     0.00000    0.00000   50.70006   19.16258
     141      444        2     0.00000    1.92994    7.15242   26.31500
     142      444        2     0.00000   50.70006   45.47758   26.31500
     143      444        2     0.00000    1.92994   45.47758   26.31500
     144      444        2     0.00000   50.70006    7.15242   26.31500
     145      444        2     0.00000   26.31500   35.69893   28.23073
     146      444        2     0.00000   26.31500   16.93107   24.39927
     147      444        2     0.00000   26.31500   16.93107   28.23073
     148      444        2     0.00000   26.31500   35.69893   24.39927
     149      444        2     0.00000   28.23073   26.31500   35.69893
     150      444        2     0.00000   24.39927   26.31500   16.93107
     151      444        2     0.00000   28.23073   26.31500   16.93107
     152      444        2     0.00000   24.39927   26.31500   35.69893
     153      444        2     0.00000   35.69893   28.23073   26.31500
     154      444        2     0.00000   16.93107   24.39927   26.31500
     155      444        2     0.00000   16.93107   28.23073   26.31500
     156      444        2     0.00000   35.69893   24.39927   26.31500
     157      444        2     0.00000   35.69893   26.31500   24.39927
     158      444        2     0.00000   16.93107   26.31500   28.23073
     159      444        2     0.00000   16.93107   26.31500   24.39927
     160      444        2     0.00000   35.69893   26.31500   28.23073
     161      444        2     0.00000   26.31500   28.23073   16.93107
     162      444        2     0.00000   26.31500   24.39927   35.69893
     163      444        2     0.00000   26.31500   28.23073   35.69893
     164      444        2     0.00000   26.31500   24.39927   16.93107
     165      444        2     0.00000   28.23073   35.69893   26.31500
     166      444        2     0.00000   24.39927   16.93107   26.31500
     167      444        2     0.00000   28.23073   16.93107   26.31500
     168      444        2     0.00000   24.39927   35.69893   26.31500
     169      444        2     0.00000   26.31500    9.38393    1.91573
     170      444        2     0.00000   26.31500   43.24607   50.71427
     171      444        2     0.00000   26.31500   43.24607    1.91573
     172      444        2     0.00000   26.31500    9.38393   50.71427
     173      444        2     0.00000   28.23073    0.00000    9.38393
     174      444        2     0.00000   24.39927    0.00000   43.24607
     175      444        2     0.00000   28.23073    0.00000   43.24607
     176      444        2     0.00000   24.39927    0.00000    9.38393
     177      444        2     0.00000   35.69893    1.91573    0.00000
     178      444        2     0.00000   16.93107   50.71427    0.00000
     179      444        2     0.00000   16.93107    1.91573    0.00000
     180      444        2     0.00000   35.69893   50.71427    0.00000
     181      444        2     0.00000   35.69893    0.00000   50.71427
     182      444        2     0.00000   16.93107    0.00000    1.91573
     183      444        2     0.00000   16.93107    0.00000   50.71427
     184      444        2     0.00000   35.69893    0.00000    1.91573
     185      444        2     0.00000   26.31500    1.91573   43.24607
     186      444        2     0.00000   26.31500   50.71427    9.38393
     187      444        2     0.00000   26.31500    1.91573    9.38393
     188      444        2     0.00000   26.31500   50.71427   43.24607
     189      444        2     0.00000   28.23073    9.38393    0.00000
     190      444        2     0.00000   24.39927   43.24607    0.00000
     191      444        2     0.00000   28.23073   43.24607    0.00000
     192      444        2     0.00000   24.39927    9.38393    0.00000
     193      444        2     0.00000    0.00000   35.69893    1.91573
     194      444        2     0.00000    0.00000   16.93107   50.71427
     195      444        2     0.00000    0.00000   16.93107    1.91573
     196      444        2     0.00000    0.00000   35.69893   50.71427
     197      444        2     0.00000    1.91573   26.31500    9.38393
     198      444        2     0.00000   50.71427   26.31500   43.24607
     199      444        2     0.00000    1.91573   26.31500   43.24607
     200      444        2     0.00000   50.71427   26.31500    9.38393
     201      444        2     0.00000    9.38393   28.23073    0.00000
     202      444        2     0.00000   43.24607   24.39927    0.00000
     203      444        2     0.00000   43.24607   28.23073    0.00000
     204      444        2     0.00000    9.38393   24.39927    0.00000
     205      444        2     0.00000    9.38393   26.31500   50.71427
     206      444        2     0.00000   43.24607   26.31500    1.91573
     207      444        2     0.00000   43.24607   26.31500   50.71427
     208      444        2     0.00000    9.38393   26.31500    1.91573
     209      444        2     0.00000    0.00000   28.23073   43.24607
     210      444        2     0.00000    0.00000   24.39927    9.38393
     211      444        2     0.00000    0.00000   28.23073    9.38393
     212      444        2     0.00000    0.00000   24.39927   43.24607
     213      444        2     0.00000    1.91573   35.69893    0.00000
     214      444        2     0.00000   50.71427   16.93107    0.00000
     215      444        2     0.00000    1.91573   16.93107    0.00000
     216      444        2     0.00000   50.71427   35.69893    0.00000
     217      444        2     0.00000    0.00000    9.38393   28.23073
     218      444        2     0.00000    0.00000   43.24607   24.39927
     219      444        2     0.00000    0.00000   43.24607   28.23073
     220      444        2     0.00000    0.00000    9.38393   24.39927
     221      444        2     0.00000    1.91573    0.00000   35.69893
     222      444        2     0.00000   50.71427    0.00000   16.93107
     223      444        2     0.00000    1.91573    0.00000   16.93107
     224      444        2     0.00000   50.71427    0.00000   35.69893
     225      444        2     0.00000    9.38393    1.91573   26.31500
     226      444        2     0.00000   43.24607   50.71427   26.31500
     227      444        2     0.00000   43.24607    1.91573   26.31500
     228      444        2     0.00000    9.38393   50.71427   26.31500
     229      444        2     0.00000    9.38393    0.00000   24.39927
     230      444        2     0.00000   43.24607    0.00000   28.23073
     231      444        2     0.00000   43.24607    0.00000   24.39927
     232      444        2     0.00000    9.38393    0.00000   28.23073
     233      444        2     0.00000    0.00000    1.91573   16.93107
     234      444        2     0.00000    0.00000   50.71427   35.69893
     235      444        2     0.00000    0.00000    1.91573   35.69893
     236      444        2     0.00000    0.00000   50.71427   16.93107
     237      444        2     0.00000    1.91573    9.38393   26.31500
     238      444        2     0.00000   50.71427   43.24607   26.31500
     239      444        2     0.00000    1.91573   43.24607   26.31500
     240      444        2     0.00000   50.71427    9.38393   26.31500
     241      444        2     0.00000   26.31500   31.10486   26.31500
     242      444        2     0.00000   26.31500   21.52514   26.31500
     243      444        2     0.00000   26.31500   26.31500   31.10486
     244      444        2     0.00000   26.31500   26.31500   21.52514
     245      444        2     0.00000   31.10486   26.31500   26.31500
     246      444        2     0.00000   21.52514   26.31500   26.31500
     247      444        2     0.00000   26.31500    4.78986    0.00000
     248      444        2     0.00000   26.31500   47.84014    0.00000
     249      444        2     0.00000   26.31500    0.00000    4.78986
     250      444        2     0.00000   26.31500    0.00000   47.84014
     251      444        2     0.00000   31.10486    0.00000    0.00000
     252      444        2     0.00000   21.52514    0.00000    0.00000
     253      444        2     0.00000    0.00000   31.10486    0.00000
     254      444        2     0.00000    0.00000   21.52514    0.00000
     255      444        2     0.00000    0.00000   26.31500    4.78986
     256      444        2     0.00000    0.00000   26.31500   47.84014
     257      444        2     0.00000    4.78986   26.31500    0.00000
     258      444        2     0.00000   47.84014   26.31500    0.00000
     259      444        2     0.00000    0.00000    4.78986   26.31500
     260      444        2     0.00000    0.00000   47.84014   26.31500
     261      444        2     0.00000    0.00000    0.00000   31.10486
     262      444        2     0.00000    0.00000    0.00000   21.52514
     263      444        2     0.00000    4.78986    0.00000   26.31500
     264      444        2     0.00000   47.84014    0.00000   26.31500
     265      444        2     0.00000   26.31500   38.09202   26.31500
     266      444        2     0.00000   26.31500   14.53798   26.31500
     267      444        2     0.00000   26.31500   26.31500   38.09202
     268      444        2     0.00000   26.31500   26.31500   14.53798
     269      444        2     0.00000   38.09202   26.31500   26.31500
     270      444        2     0.00000   14.53798   26.31500   26.31500
     271      444        2     0.00000   26.31500   11.77702    0.00000
     272      444        2     0.00000   26.31500   40.85298    0.00000
     273      444        2     0.00000   26.31500    0.00000   11.77702
     274      444        2     0.00000   26.31500    0.00000   40.85298
     275      444        2     0.00000   38.09202    0.00000    0.00000
     276      444        2     0.00000   14.53798    0.00000    0.00000
     277      444        2     0.00000    0.00000   38.09202    0.00000
     278      444        2     0.00000    0.00000   14.53798    0.00000
     279      444        2     0.00000    0.00000   26.31500   11.77702
     280      444        2     0.00000    0.00000   26.31500   40.85298
     281      444        2     0.00000   11.77702   26.31500    0.00000
     282      444        2     0.00000   40.85298   26.31500    0.00000
     283      444        2     0.00000    0.00000   11.77702   26.31500
     284      444        2     0.00000    0.00000   40.85298   26.31500
     285      444        2     0.00000    0.00000    0.00000   38.09202
     286      444        2     0.00000    0.00000    0.00000   14.53798
     287      444        2     0.00000   11.77702    0.00000   26.31500
     288      444        2     0.00000   40.85298    0.00000   26.31500
     289      444        3     0.00000   26.31500   34.42686   34.42686
     290      444        3     0.00000   26.31500   18.20314   18.20314
     291      444        3     0.00000   26.31500   18.20314   34.42686
     292      444        3     0.00000   26.31500   34.42686   18.20314
     293      444        3     0.00000   34.42686   26.31500   34.42686
     294      444        3     0.00000   18.20314   26.31500   18.20314
     295      444        3     0.00000   34.42686   26.31500   18.20314
     296      444        3     0.00000   18.20314   26.31500   34.42686
     297      444        3     0.00000   34.42686   34.42686   26.31500
     298      444        3     0.00000   18.20314   18.20314   26.31500
     299      444        3     0.00000   18.20314   34.42686   26.31500
     300      444        3     0.00000   34.42686   18.20314   26.31500
     301      444        3     0.00000   26.31500    8.11186    8.11186
     302      444        3     0.00000   26.31500   44.51814   44.51814
     303      444        3     0.00000   26.31500   44.51814    8.11186
     304      444        3     0.00000   26.31500    8.11186   44.51814
     305      444        3     0.00000   34.42686    0.00000    8.11186
     306      444        3     0.00000   18.20314    0.00000   44.51814
     307      444        3     0.00000   34.42686    0.00000   44.51814
     308      444        3     0.00000   18.20314    0.00000    8.11186
     309      444        3     0.00000   34.42686    8.11186    0.00000
     310      444        3     0.00000   18.20314   44.51814    0.00000
     311      444        3     0.00000   18.20314    8.11186    0.00000
     312      444        3     0.00000   34.42686   44.51814    0.00000
     313      444        3     0.00000    0.00000   34.42686    8.11186
     314      444        3     0.00000    0.00000   18.20314   44.51814
     315      444        3     0.00000    0.00000   18.20314    8.11186
     316      444        3     0.00000    0.00000   34.42686   44.51814
     317      444        3     0.00000    8.11186   26.31500    8.11186
     318      444        3     0.00000   44.51814   26.31500   44.51814
     319      444        3     0.00000    8.11186   26.31500   44.51814
     320      444        3     0.00000   44.51814   26.31500    8.11186
     321      444        3     0.00000    8.11186   34.42686    0.00000
     322      444        3     0.00000   44.51814   18.20314    0.00000
     323      444        3     0.00000   44.51814   34.42686    0.00000
     324      444        3     0.00000    8.11186   18.20314    0.00000
     325      444        3     0.00000    0.00000    8.11186   34.42686
     326      444        3     0.00000    0.00000   44.51814   18.20314
     327      444        3     0.00000    0.00000   44.51814   34.42686
     328      444        3     0.00000    0.00000    8.11186   18.20314
     329      444        3     0.00000    8.11186    0.00000   34.42686
     330      444        3     0.00000   44.51814    0.00000   18.20314
     331      444        3     0.00000    8.11186    0.00000   18.20314
     332      444        3     0.00000   44.51814    0.00000   34.42686
     333      444        3     0.00000    8.11186    8.11186   26.31500
     334      444        3     0.00000   44.51814   44.51814   26.31500
     335      444        3     0.00000   44.51814    8.11186   26.31500
     336      444        3     0.00000    8.11186   44.51814   26.31500
     337      444        4     0.00000   26.31500   34.58054   28.81914
     338      444        4     0.00000   26.31500   18.04946   23.81086
     339      444        4     0.00000   26.31500   18.04946   28.81914
     340      444        4     0.00000   26.31500   34.58054   23.81086
     341      444        4     0.00000   28.81914   26.31500   34.58054
     342      444        4     0.00000   23.81086   26.31500   18.04946
     343      444        4     0.00000   28.81914   26.31500   18.04946
     344      444        4     0.00000   23.81086   26.31500   34.58054
     345      444        4     0.00000   34.58054   28.81914   26.31500
     346      444        4     0.00000   18.04946   23.81086   26.31500
     347      444        4     0.00000   18.04946   28.81914   26.31500
     348      444        4     0.00000   34.58054   23.81086   26.31500
     349      444        4     0.00000   34.58054   26.31500   23.81086
     350      444        4     0.00000   18.04946   26.31500   28.81914
     351      444        4     0.00000   18.04946   26.31500   23.81086
     352      444        4     0.00000   34.58054   26.31500   28.81914
     353      444        4     0.00000   26.31500   28.81914   18.04946
     354      444        4     0.00000   26.31500   23.81086   34.58054
     355      444        4     0.00000   26.31500   28.81914   34.58054
     356      444        4     0.00000   26.31500   23.81086   18.04946
     357      444        4     0.00000   28.81914   34.58054   26.31500
     358      444        4     0.00000   23.81086   18.04946   26.31500
     359      444        4     0.00000   28.81914   18.04946   26.31500
     360      444        4     0.00000   23.81086   34.58054   26.31500
     361      444        4     0.00000   26.31500    8.26554    2.50414
     362      444        4     0.00000   26.31500   44.36446   50.12586
     363      444        4     0.00000   26.31500   44.36446    2.50414
     364      444        4     0.00000   26.31500    8.26554   50.12586
     365      444        4     0.00000   28.81914    0.00000    8.26554
     366      444        4     0.00000   23.81086    0.00000   44.36446
     367      444        4     0.00000   28.81914    0.00000   44.36446