Created on Mon Jun 10 13:52:42 2024 

        2232 atoms
        2640 bonds
        5352 angles
        5640 dihedrals
        2520 impropers

           7 atom types
          14 bond types
          25 angle types
           6 dihedral types
           1 improper types
           0.000000  38.768663 xlo xhi
           0.000000  38.907038 ylo yhi
           0.000000  38.829391 zlo zhi
           0.047909   0.012417   0.035264 xy xz yz

Masses

    1    12.010700000 # C_R
    2     1.007940000 # H_
    3    15.999400000 # O_2
    4    65.380000000 # Zn2f2
    5    14.006700000 # N_3
    6    12.010700000 # C_2
    7    12.010700000 # C_3

Bond Coeffs

    1      391.669513        1.458000  # C_R C_R
    2      714.557442        1.269010  # C_R O_2
    3      462.655054        1.379256  # C_R C_R
    4      357.440381        1.081418  # C_R H_
    5      111.058393        2.079698  # O_2 Zn2f2
    6      602.435128        0.966432  # O_2 H_
    7       19.441823        3.080101  # Zn2f2 Zn2f2
    8      140.356048        1.989314  # Zn2f2 N_3
    9      556.800015        1.426179  # N_3 C_2
   10      528.634538        1.451071  # N_3 C_3
   11      367.712375        1.489000  # C_2 C_3
   12      354.483902        1.084416  # C_2 H_
   13      331.069389        1.109401  # C_3 H_
   14      349.795899        1.514000  # C_3 C_3

Angle Coeffs

    1              cosine/periodic      137.714246              -1               3 # C_R C_R O_2
    2              cosine/periodic      206.778426              -1               3 # O_2 C_R O_2
    3              cosine/periodic      102.183280              -1               3 # C_R C_R C_R
    4              cosine/periodic      111.297508              -1               3 # C_R C_R C_R
    5              cosine/periodic       57.289016              -1               3 # C_R C_R H_
    6              cosine/periodic       39.441082              -1               3 # C_R O_2 Zn2f2
    7              cosine/periodic       17.706467              -1               3 # Zn2f2 O_2 H_
    8              cosine/periodic       44.863234              -1               3 # H_ O_2 H_
    9              cosine/periodic       46.978550              -1               3 # O_2 Zn2f2 O_2
   10              cosine/periodic       13.328014              -1               3 # O_2 Zn2f2 Zn2f2
   11              cosine/periodic       55.466920              -1               3 # O_2 Zn2f2 N_3
   12              cosine/periodic       15.369924              -1               3 # Zn2f2 Zn2f2 N_3
   13                      fourier      103.544874        0.317506        0.313225        0.272502 # Zn2f2 N_3 C_2
   14                      fourier      101.876823        0.317506        0.313225        0.272502 # Zn2f2 N_3 C_3
   15                      fourier      267.657505        0.317506        0.313225        0.272502 # C_2 N_3 C_3
   16                      fourier      260.869388        0.317506        0.313225        0.272502 # C_3 N_3 C_3
   17              cosine/periodic      125.395432              -1               3 # N_3 C_2 C_3
   18              cosine/periodic       71.407473              -1               3 # N_3 C_2 H_
   19              cosine/periodic       49.433937              -1               3 # C_3 C_2 H_
   20                      fourier      311.265699        0.343737        0.374972        0.281246 # C_2 C_3 N_3
   21                      fourier      121.290688        0.343737        0.374972        0.281246 # C_2 C_3 H_
   22                      fourier      169.780468        0.343737        0.374972        0.281246 # N_3 C_3 H_
   23                      fourier       75.498766        0.343737        0.374972        0.281246 # H_ C_3 H_
   24                      fourier      303.297032        0.343737        0.374972        0.281246 # N_3 C_3 C_3
   25                      fourier      117.318683        0.343737        0.374972        0.281246 # C_3 C_3 H_

Dihedral Coeffs

    1        1.250000              -1               2 # O_2 C_R C_R C_R
    2        6.737110              -1               2 # C_R C_R O_2 Zn2f2
    3        3.368555              -1               2 # C_R C_R C_R H_
    4        0.166667               1               3 # Zn2f2 N_3 C_2 C_3
    5        0.054250               1               3 # Zn2f2 N_3 C_3 C_3
    6        0.117722               1               3 # N_3 C_3 C_3 N_3

Improper Coeffs

    1        2.000000        1.000000       -1.000000        0.000000               0 # C_R C_R O_2 O_2

Pair Coeffs

    1        0.105000        3.430851 # C_R C_R
    2        0.044000        2.571134 # H_ H_
    3        0.060000        3.118146 # O_2 O_2
    4        0.124000        2.461553 # Zn2f2 Zn2f2
    5        0.069000        3.260689 # N_3 N_3
    6        0.105000        3.430851 # C_2 C_2
    7        0.105000        3.430851 # C_3 C_3

Atoms

       1      444        1     0.00000   -1.88314   -5.45880    7.93080
       2      444        1     0.00000   -3.00585   -4.72328    8.67539
       3      444        1     0.00000   -3.33878   -5.02403    9.96270
       4      444        2     0.00000   -2.86468   -5.70540   10.42440
       5      444        1     0.00000   -4.39419   -4.32762   10.62819
       6      444        2     0.00000   -4.64580   -4.53350   11.51980
       7      444        1     0.00000   -5.03226   -3.32992    9.90253
       8      444        2     0.00000   -5.75508   -2.85647   10.29310
       9      444        1     0.00000   -4.64021   -3.02387    8.64649
      10      444        1     0.00000   -3.58896   -3.68495    8.01028
      11      444        2     0.00000   -3.29395   -3.42506    7.14469
      12      444        1     0.00000   -5.44718   -1.87476    7.90162
      13      444        1     0.00000   -1.84027   -8.04373    5.46242
      14      444        1     0.00000   -2.95312   -8.82880    4.71558
      15      444        1     0.00000   -3.39300  -10.05260    5.12988
      16      444        2     0.00000   -2.99664  -10.46987    5.88453
      17      444        1     0.00000   -4.39159  -10.66551    4.46254
      18      444        2     0.00000   -4.65804  -11.53649    4.73022
      19      444        1     0.00000   -5.04436  -10.05227    3.38602
      20      444        2     0.00000   -5.77618  -10.48286    2.95825
      21      444        1     0.00000   -4.60596   -8.80593    2.94512
      22      444        1     0.00000   -3.57644   -8.17591    3.61349
      23      444        2     0.00000   -3.28900   -7.31353    3.34323
      24      444        1     0.00000   -5.31726   -8.10045    1.82077
      25      444        1     0.00000    1.88886   -8.02909    5.50646
      26      444        1     0.00000    3.07093   -8.68190    4.78707
      27      444        1     0.00000    3.58010   -9.87992    5.33579
      28      444        2     0.00000    3.14973  -10.28288    6.08165
      29      444        1     0.00000    4.72926  -10.48216    4.77282
      30      444        2     0.00000    5.12587  -11.25338    5.16327
      31      444        1     0.00000    5.28171   -9.86971    3.56588
      32      444        2     0.00000    6.02705  -10.26155    3.12301
      33      444        1     0.00000    4.70899   -8.72032    3.07937
      34      444        1     0.00000    3.62335   -8.11448    3.65816
      35      444        2     0.00000    3.25692   -7.31927    3.28816
      36      444        1     0.00000    5.35586   -7.96906    1.87364
      37      444        1     0.00000    1.83437   -5.49047    7.89580
      38      444        1     0.00000    2.99487   -4.73544    8.65203
      39      444        1     0.00000    3.45809   -5.21681    9.89059
      40      444        2     0.00000    3.06690   -5.98426   10.29447
      41      444        1     0.00000    4.52877   -4.51317   10.52360
      42      444        2     0.00000    4.81067   -4.77784   11.39177
      43      444        1     0.00000    5.17914   -3.43215    9.88317
      44      444        2     0.00000    5.92163   -2.99465   10.28752
      45      444        1     0.00000    4.69508   -3.03156    8.62972
      46      444        1     0.00000    3.61229   -3.68485    7.99204
      47      444        2     0.00000    3.31862   -3.40700    7.13214
      48      444        1     0.00000    5.37391   -1.89016    7.89170
      49      444        1     0.00000   -7.87211    1.90468    5.48131
      50      444        1     0.00000   -8.49434    3.15112    4.83050
      51      444        1     0.00000   -9.68865    3.67836    5.36169
      52      444        2     0.00000  -10.08554    3.26220    6.11609
      53      444        1     0.00000  -10.30967    4.83446    4.78495
      54      444        2     0.00000  -11.13473    5.17394    5.10662
      55      444        1     0.00000   -9.61464    5.44546    3.70190
      56      444        2     0.00000   -9.94783    6.25216    3.32755
      57      444        1     0.00000   -8.48638    4.89644    3.20063
      58      444        1     0.00000   -7.88284    3.77547    3.75265
      59      444        2     0.00000   -7.06684    3.44078    3.39829
      60      444        1     0.00000   -7.77370    5.63366    1.99132
      61      444        1     0.00000   -7.87489   -1.84155    5.35863
      62      444        1     0.00000   -8.60991   -3.04809    4.67401
      63      444        1     0.00000   -9.88470   -3.48992    5.09554
      64      444        2     0.00000  -10.35998   -3.01128    5.76512
      65      444        1     0.00000  -10.43292   -4.61099    4.53217
      66      444        2     0.00000  -11.26912   -4.94307    4.83853
      67      444        1     0.00000   -9.78547   -5.22517    3.55852
      68      444        2     0.00000  -10.16978   -5.99940    3.16214
      69      444        1     0.00000   -8.53344   -4.75811    3.09730
      70      444        1     0.00000   -7.94102   -3.67481    3.60364
      71      444        2     0.00000   -7.11677   -3.34550    3.26254
      72      444        1     0.00000   -7.84857   -5.53620    1.90794
      73      444        1     0.00000   -5.44670    1.83517    7.96241
      74      444        1     0.00000   -4.71696    2.98646    8.66309
      75      444        1     0.00000   -5.11442    3.41354    9.98020
      76      444        2     0.00000   -5.79874    2.94736   10.45066
      77      444        1     0.00000   -4.50154    4.50535   10.55539
      78      444        2     0.00000   -4.80425    4.84572   11.38953
      79      444        1     0.00000   -3.48824    5.06728    9.93192
      80      444        2     0.00000   -3.01557    5.75796   10.38011
      81      444        1     0.00000   -3.06834    4.72173    8.67918
      82      444        1     0.00000   -3.72261    3.62698    8.06638
      83      444        2     0.00000   -3.44001    3.34517    7.20606
      84      444        1     0.00000   -1.90959    5.49181    7.99334
      85      444        1     0.00000   -7.88434   -5.40478   -1.78976
      86      444        1     0.00000   -8.65376   -4.66763   -2.84337
      87      444        1     0.00000   -9.94960   -4.88026   -3.09520
      88      444        2     0.00000  -10.40199   -5.56318   -2.61266
      89      444        1     0.00000  -10.66607   -4.13462   -4.04087
      90      444        2     0.00000  -11.58275   -4.31926   -4.19675
      91      444        1     0.00000  -10.01421   -3.09486   -4.77295
      92      444        2     0.00000  -10.49538   -2.56478   -5.39652
      93      444        1     0.00000   -8.63823   -2.87821   -4.54035
      94      444        1     0.00000   -7.98513   -3.61973   -3.53753
      95      444        2     0.00000   -7.08374   -3.41612   -3.32020
      96      444        1     0.00000   -7.88298   -1.86998   -5.30804
      97      444        1     0.00000   -5.40042   -7.97058   -1.89519
      98      444        1     0.00000   -4.72262   -8.66052   -3.10296
      99      444        1     0.00000   -5.23348   -9.84523   -3.59545
     100      444        2     0.00000   -5.96713  -10.23883   -3.14053
     101      444        1     0.00000   -4.71690  -10.50972   -4.75015
     102      444        2     0.00000   -5.12855  -11.27905   -5.12872
     103      444        1     0.00000   -3.52822   -9.92222   -5.29463
     104      444        2     0.00000   -3.05335  -10.39005   -5.97142
     105      444        1     0.00000   -3.04999   -8.70257   -4.86959
     106      444        1     0.00000   -3.64408   -8.10001   -3.67991
     107      444        2     0.00000   -3.26829   -7.30787   -3.31519
     108      444        1     0.00000   -1.84081   -7.96852   -5.51910
     109      444        1     0.00000   -1.91089    8.07572    5.46587
     110      444        1     0.00000   -2.97186    8.78056    4.75845
     111      444        1     0.00000   -3.43074   10.08980    5.21306
     112      444        2     0.00000   -2.99913   10.53337    5.93430
     113      444        1     0.00000   -4.52584   10.68346    4.55485
     114      444        2     0.00000   -4.84741   11.51802    4.87665
     115      444        1     0.00000   -5.15295   10.11442    3.47513
     116      444        2     0.00000   -5.87069   10.55978    3.04049
     117      444        1     0.00000   -4.71364    8.86869    3.03175
     118      444        1     0.00000   -3.58305    8.22227    3.66007
     119      444        2     0.00000   -3.25831    7.40330    3.30943
     120      444        1     0.00000   -5.33970    8.17953    1.84430
     121      444        1     0.00000    1.80030    5.40445    7.96956
     122      444        1     0.00000    2.91890    4.65127    8.66929
     123      444        1     0.00000    3.27204    5.05043    9.96880
     124      444        2     0.00000    2.76292    5.70953   10.42474
     125      444        1     0.00000    4.37401    4.47398   10.57094
     126      444        2     0.00000    4.68548    4.78826   11.40867
     127      444        1     0.00000    5.04189    3.38274    9.90225
     128      444        2     0.00000    5.77034    2.94449   10.32627
     129      444        1     0.00000    4.61761    2.96852    8.63164
     130      444        1     0.00000    3.53115    3.59987    8.05387
     131      444        2     0.00000    3.20773    3.29577    7.21337
     132      444        1     0.00000    5.36379    1.87159    7.90718
     133      444        1     0.00000    7.87404   -1.82169    5.29028
     134      444        1     0.00000    8.58920   -2.89945    4.48470
     135      444        1     0.00000    9.95220   -3.23415    4.84159
     136      444        2     0.00000   10.39205   -2.75807    5.53746
     137      444        1     0.00000   10.59151   -4.22709    4.18329
     138      444        2     0.00000   11.47317   -4.46874    4.44092
     139      444        1     0.00000    9.96865   -4.89418    3.12589
     140      444        2     0.00000   10.44209   -5.53970    2.61252
     141      444        1     0.00000    8.57691   -4.58627    2.82247
     142      444        1     0.00000    7.94824   -3.55746    3.49266
     143      444        2     0.00000    7.06208   -3.30919    3.25775
     144      444        1     0.00000    7.85537   -5.43877    1.72228
     145      444        3     0.00000   -1.47076   -4.94480    6.88349
     146      444        3     0.00000   -1.46800   -6.49676    8.54225
     147      444        3     0.00000   -1.43019   -7.00797    4.90331
     148      444        3     0.00000   -1.44419   -8.60361    6.51409
     149      444        3     0.00000    1.43242   -6.97202    4.93842
     150      444        3     0.00000    1.45147   -8.55991    6.55647
     151      444        3     0.00000    1.42558   -4.95470    6.89391
     152      444        3     0.00000    1.41920   -6.52547    8.54535
     153      444        3     0.00000   -6.83974    1.50874    4.93058
     154      444        3     0.00000   -8.46210    1.47107    6.50183
     155      444        3     0.00000   -6.85170   -1.41348    4.86364
     156      444        3     0.00000   -8.47378   -1.41680    6.42606
     157      444        3     0.00000   -4.87954   -1.44450    6.84358
     158      444        3     0.00000   -6.49023   -1.47068    8.46116
     159      444        3     0.00000   -4.85131    1.45246    6.93555
     160      444        3     0.00000   -6.47812    1.40543    8.52618
     161      444        3     0.00000   -6.81178   -4.92528   -1.40215
     162      444        3     0.00000   -8.46368   -6.46844   -1.37476
     163      444        3     0.00000   -4.81684   -6.95683   -1.48142
     164      444        3     0.00000   -6.45244   -8.54177   -1.49215
     165      444        3     0.00000   -4.81554   -7.02053    1.42794
     166      444        3     0.00000   -6.39873   -8.59754    1.40738
     167      444        3     0.00000   -6.75808   -4.98763    1.52263
     168      444        3     0.00000   -8.39765   -6.58963    1.48845
     169      444        3     0.00000   -1.50213    7.02165    4.92785
     170      444        3     0.00000   -1.46553    8.58729    6.54695
     171      444        3     0.00000   -1.50855    4.94296    6.87793
     172      444        3     0.00000   -1.51082    6.48915    8.51044
     173      444        3     0.00000    1.35108    4.91092    6.88914
     174      444        3     0.00000    1.34359    6.46207    8.54674
     175      444        3     0.00000    1.42717    6.97101    4.93132
     176      444        3     0.00000    1.46377    8.51231    6.57065
     177      444        3     0.00000    4.80313    1.43161    6.88437
     178      444        3     0.00000    6.43369    1.43024    8.43854
     179      444        3     0.00000    4.83555   -1.48334    6.84513
     180      444        3     0.00000    6.43599   -1.46033    8.38667
     181      444        3     0.00000    6.81334   -1.41358    4.78831
     182      444        3     0.00000    8.40301   -1.40290    6.34180
     183      444        3     0.00000    6.78158    1.43847    4.80122
     184      444        3     0.00000    8.47077    1.43013    6.36937
     185      444        3     0.00000   -4.82240    6.99210   -1.40770
     186      444        3     0.00000   -6.49289    8.54943   -1.49340
     187      444        3     0.00000   -6.78482    4.91366   -1.33513
     188      444        3     0.00000   -8.46943    6.44319   -1.31804
     189      444        3     0.00000   -6.75323    5.02079    1.54594
     190      444        3     0.00000   -8.37596    6.63335    1.53104
     191      444        3     0.00000   -4.81426    7.07867    1.50423
     192      444        3     0.00000   -6.37948    8.67906    1.39516
     193      444        3     0.00000   -0.02736   -4.29289    4.13934
     194      444        3     0.00000   -4.16765    0.05922    4.17004
     195      444        3     0.00000   -4.08947   -4.28394    0.16443
     196      444        3     0.00000   -0.32212    4.30773    4.03134
     197      444        3     0.00000    4.09286    0.04412    4.15328
     198      444        3     0.00000   -4.00609    4.37062    0.20211
     199      444        4     0.00000   -0.01309   -5.93075    5.85785
     200      444        4     0.00000   -0.00816   -7.60474    7.57776
     201      444        4     0.00000   -5.81836    0.00110    5.83605
     202      444        4     0.00000   -7.52505   -0.02165    7.52215
     203      444        4     0.00000   -5.74710   -5.93739    0.01648
     204      444        4     0.00000   -7.46677   -7.60413    0.00015
     205      444        4     0.00000   -0.06229    5.90922    5.85688
     206      444        4     0.00000   -0.03893    7.57260    7.59146
     207      444        4     0.00000    5.75686    0.00551    5.78322
     208      444        4     0.00000    7.47638    0.00191    7.45179
     209      444        4     0.00000   -5.73695    5.96523    0.06946
     210      444        4     0.00000   -7.47200    7.61922    0.02193
     211      444        1     0.00000    1.88308    5.45907   -7.93000
     212      444        1     0.00000    3.00488    4.72314   -8.67473
     213      444        1     0.00000    3.33782    5.02389   -9.96204
     214      444        2     0.00000    2.86397    5.70502  -10.42467
     215      444        1     0.00000    4.39413    4.32789  -10.62739
     216      444        2     0.00000    4.64599    4.53353  -11.51993
     217      444        1     0.00000    5.03220    3.33019   -9.90173
     218      444        2     0.00000    5.75527    2.85650  -10.29324
     219      444        1     0.00000    4.63950    3.02348   -8.64677
     220      444        1     0.00000    3.58889    3.68522   -8.00948
     221      444        2     0.00000    3.29415    3.42508   -7.14483
     222      444        1     0.00000    5.44737    1.87479   -7.90175
     223      444        1     0.00000    1.84046    8.04376   -5.46255
     224      444        1     0.00000    2.95242    8.82842   -4.71586
     225      444        1     0.00000    3.39319   10.05263   -5.13001
     226      444        2     0.00000    2.99567   10.46973   -5.88387
     227      444        1     0.00000    4.39178   10.66554   -4.46267
     228      444        2     0.00000    4.65824   11.53651   -4.73035
     229      444        1     0.00000    5.04429   10.05254   -3.38521
     230      444        2     0.00000    5.77547   10.48247   -2.95853
     231      444        1     0.00000    4.60525    8.80554   -2.94540
     232      444        1     0.00000    3.57664    8.17593   -3.61362
     233      444        2     0.00000    3.28803    7.31339   -3.34258
     234      444        1     0.00000    5.31746    8.10048   -1.82090
     235      444        1     0.00000   -1.88983    8.02896   -5.50580
     236      444        1     0.00000   -3.07100    8.68217   -4.78626
     237      444        1     0.00000   -3.57990    9.87995   -5.33592
     238      444        2     0.00000   -3.14954   10.28290   -6.08178
     239      444        1     0.00000   -4.72996   10.48178   -4.77310
     240      444        2     0.00000   -5.12567   11.25341   -5.16340
     241      444        1     0.00000   -5.28241    9.86933   -3.56616
     242      444        2     0.00000   -6.02776   10.26117   -3.12328
     243      444        1     0.00000   -4.70970    8.71994   -3.07965
     244      444        1     0.00000   -3.62315    8.11451   -3.65829
     245      444        2     0.00000   -3.25762    7.31888   -3.28844
     246      444        1     0.00000   -5.35566    7.96909   -1.87378
     247      444        1     0.00000   -1.83508    5.49009   -7.89608
     248      444        1     0.00000   -2.99584    4.73530   -8.65137
     249      444        1     0.00000   -3.45816    5.21708   -9.88979
     250      444        2     0.00000   -3.06761    5.98388  -10.29475
     251      444        1     0.00000   -4.52947    4.51279  -10.52388
     252      444        2     0.00000   -4.81047    4.77787  -11.39190
     253      444        1     0.00000   -5.17985    3.43176   -9.88345
     254      444        2     0.00000   -5.92143    2.99468  -10.28765
     255      444        1     0.00000   -4.69579    3.03118   -8.63000
     256      444        1     0.00000   -3.61210    3.68488   -7.99217
     257      444        2     0.00000   -3.31932    3.40662   -7.13241
     258      444        1     0.00000   -5.37371    1.89019   -7.89183
     259      444        1     0.00000    7.87140   -1.90506   -5.48159
     260      444        1     0.00000    8.49364   -3.15150   -4.83077
     261      444        1     0.00000    9.68794   -3.67874   -5.36197
     262      444        2     0.00000   10.08573   -3.26217   -6.11622
     263      444        1     0.00000   10.30896   -4.83484   -4.78523
     264      444        2     0.00000   11.13493   -5.17391   -5.10675
     265      444        1     0.00000    9.61483   -5.44543   -3.70203
     266      444        2     0.00000    9.94802   -6.25214   -3.32768
     267      444        1     0.00000    8.48657   -4.89642   -3.20076
     268      444        1     0.00000    7.88213   -3.77585   -3.75293
     269      444        2     0.00000    7.06613   -3.44116   -3.39857
     270      444        1     0.00000    7.77273   -5.63380   -1.99067
     271      444        1     0.00000    7.87419    1.84117   -5.35891
     272      444        1     0.00000    8.60921    3.04771   -4.67428
     273      444        1     0.00000    9.88490    3.48995   -5.09567
     274      444        2     0.00000   10.35927    3.01090   -5.76540
     275      444        1     0.00000   10.43221    4.61060   -4.53245
     276      444        2     0.00000   11.26841    4.94269   -4.83881
     277      444        1     0.00000    9.78476    5.22479   -3.55880
     278      444        2     0.00000   10.16971    5.99967   -3.16134
     279      444        1     0.00000    8.53273    4.75773   -3.09758
     280      444        1     0.00000    7.94031    3.67443   -3.60392
     281      444        2     0.00000    7.11606    3.34512   -3.26281
     282      444        1     0.00000    7.84877    5.53623   -1.90807
     283      444        1     0.00000    5.44599   -1.83555   -7.96268
     284      444        1     0.00000    4.71715   -2.98644   -8.66322
     285      444        1     0.00000    5.11461   -3.41351   -9.98033
     286      444        2     0.00000    5.79868   -2.94709  -10.44985
     287      444        1     0.00000    4.50083   -4.50573  -10.55566
     288      444        2     0.00000    4.80354   -4.84610  -11.38981
     289      444        1     0.00000    3.48843   -5.06726   -9.93205
     290      444        2     0.00000    3.01486   -5.75834  -10.38039
     291      444        1     0.00000    3.06828   -4.72146   -8.67838
     292      444        1     0.00000    3.72191   -3.62737   -8.06666
     293      444        2     0.00000    3.44021   -3.34514   -7.20619
     294      444        1     0.00000    1.90978   -5.49178   -7.99347
     295      444        1     0.00000    7.88363    5.40440    1.78949
     296      444        1     0.00000    8.65279    4.66749    2.84402
     297      444        1     0.00000    9.94889    4.87988    3.09492
     298      444        2     0.00000   10.40218    5.56321    2.61253
     299      444        1     0.00000   10.66536    4.13424    4.04059
     300      444        2     0.00000   11.58295    4.31929    4.19662
     301      444        1     0.00000   10.01441    3.09488    4.77282
     302      444        2     0.00000   10.49441    2.56464    5.39718
     303      444        1     0.00000    8.63843    2.87824    4.54022
     304      444        1     0.00000    7.98533    3.61976    3.53740
     305      444        2     0.00000    7.08303    3.41574    3.31992
     306      444        1     0.00000    7.88228    1.86960    5.30776
     307      444        1     0.00000    5.40062    7.97061    1.89506
     308      444        1     0.00000    4.72191    8.66014    3.10268
     309      444        1     0.00000    5.23278    9.84485    3.59517
     310      444        2     0.00000    5.96732   10.23886    3.14039
     311      444        1     0.00000    4.71709   10.50975    4.75002
     312      444        2     0.00000    5.12784   11.27867    5.12844
     313      444        1     0.00000    3.52841    9.92225    5.29450
     314      444        2     0.00000    3.05264   10.38967    5.97114
     315      444        1     0.00000    3.05018    8.70260    4.86946
     316      444        1     0.00000    3.64401    8.10028    3.68072
     317      444        2     0.00000    3.26849    7.30790    3.31505
     318      444        1     0.00000    1.84010    7.96814    5.51882
     319      444        1     0.00000    1.91018   -8.07610   -5.46615
     320      444        1     0.00000    2.97205   -8.78054   -4.75858
     321      444        1     0.00000    3.43003  -10.09018   -5.21334
     322      444        2     0.00000    2.99842  -10.53375   -5.93458
     323      444        1     0.00000    4.52603  -10.68343   -4.55498
     324      444        2     0.00000    4.84644  -11.51816   -4.87600
     325      444        1     0.00000    5.15225  -10.11480   -3.47541
     326      444        2     0.00000    5.87089  -10.55976   -3.04062
     327      444        1     0.00000    4.71384   -8.86866   -3.03189
     328      444        1     0.00000    3.58234   -8.22265   -3.66035
     329      444        2     0.00000    3.25734   -7.40344   -3.30878
     330      444        1     0.00000    5.33990   -8.17950   -1.84443
     331      444        1     0.00000   -1.80101   -5.40484   -7.96984
     332      444        1     0.00000   -2.91871   -4.65124   -8.66942
     333      444        1     0.00000   -3.27211   -5.05016   -9.96799
     334      444        2     0.00000   -2.76273   -5.70950  -10.42488
     335      444        1     0.00000   -4.37381   -4.47395  -10.57107
     336      444        2     0.00000   -4.68619   -4.78864  -11.40894
     337      444        1     0.00000   -5.04286   -3.38288   -9.90159
     338      444        2     0.00000   -5.77015   -2.94446  -10.32640
     339      444        1     0.00000   -4.61742   -2.96849   -8.63177
     340      444        1     0.00000   -3.53185   -3.60025   -8.05415
     341      444        2     0.00000   -3.20780   -3.29550   -7.21256
     342      444        1     0.00000   -5.36449   -1.87197   -7.90745
     343      444        1     0.00000   -7.87411    1.82196   -5.28948
     344      444        1     0.00000   -8.58900    2.89948   -4.48483
     345      444        1     0.00000   -9.95290    3.23377   -4.84187
     346      444        2     0.00000  -10.39276    2.75769   -5.53773
     347      444        1     0.00000  -10.59222    4.22671   -4.18357
     348      444        2     0.00000  -11.47388    4.46836   -4.44119