LAMMPS data file via write_data, version 7 Feb 2024, timestep = 23343786, units = real

2784 atoms
6 atom types
3240 bonds
12 bond types
6144 angles
23 angle types
6624 dihedrals
5 dihedral types
4032 impropers
1 improper types

9.299999999999983 46.79448699999987 xlo xhi
9.299999999999983 46.77088299999987 ylo yhi
9.299999999999983 47.069149999999865 zlo zhi
-0.057189 0.004121 -0.061161 xy xz yz

Masses

    1    12.010700000 # C_R
    2     1.007940000 # H_
    3    15.999400000 # O_2
    4    65.380000000 # Zn2f2
    5    14.006700000 # N_R
    6    12.010700000 # C_3

Bond Coeffs

    1      391.669513        1.458000  # C_R C_R
    2      714.557442        1.269010  # C_R O_2
    3      462.655054        1.379256  # C_R C_R
    4      357.440381        1.081418  # C_R H_
    5      111.058393        2.079698  # O_2 Zn2f2
    6      602.435128        0.966432  # O_2 H_
    7       19.441823        3.080101  # Zn2f2 Zn2f2
    8      140.566051        1.988323  # Zn2f2 N_R
    9      663.718927        1.345073  # C_R N_R
   10      529.724731        1.450075  # N_R C_3
   11      331.069389        1.109401  # C_3 H_
   12      369.943935        1.486000  # C_3 C_R

Angle Coeffs

    1              cosine/periodic      137.714246              -1               3 # C_R C_R O_2
    2              cosine/periodic      206.778426              -1               3 # O_2 C_R O_2
    3              cosine/periodic      102.183280              -1               3 # C_R C_R C_R
    4              cosine/periodic      111.297508              -1               3 # C_R C_R C_R
    5              cosine/periodic       57.289016              -1               3 # C_R C_R H_
    6              cosine/periodic       39.441082              -1               3 # C_R O_2 Zn2f2
    7              cosine/periodic       17.706467              -1               3 # Zn2f2 O_2 H_
    8              cosine/periodic       44.863234              -1               3 # H_ O_2 H_
    9              cosine/periodic       46.978550              -1               3 # O_2 Zn2f2 O_2
   10              cosine/periodic       13.328014              -1               3 # O_2 Zn2f2 Zn2f2
   11              cosine/periodic       55.506670              -1               3 # O_2 Zn2f2 N_R
   12              cosine/periodic       15.376901              -1               3 # Zn2f2 Zn2f2 N_R
   13              cosine/periodic      153.699352              -1               3 # C_R C_R N_R
   14              cosine/periodic       79.786967              -1               3 # N_R C_R H_
   15              cosine/periodic      212.442573              -1               3 # N_R C_R N_R
   16              cosine/periodic       41.111398              -1               3 # Zn2f2 N_R C_R
   17              cosine/periodic      120.000516              -1               3 # C_R N_R C_R
   18              cosine/periodic      106.782348              -1               3 # C_R N_R C_3
   19                      fourier      170.007371        0.343737        0.374972        0.281246 # N_R C_3 H_
   20                      fourier      312.548166        0.343737        0.374972        0.281246 # N_R C_3 C_R
   21                      fourier       75.498766        0.343737        0.374972        0.281246 # H_ C_3 H_
   22                      fourier      121.777217        0.343737        0.374972        0.281246 # H_ C_3 C_R
   23              cosine/periodic       99.137149              -1               3 # C_3 C_R C_R

Dihedral Coeffs

    1        1.250000              -1               2 # O_2 C_R C_R C_R
    2        6.737110              -1               2 # C_R C_R O_2 Zn2f2
    3        3.368555              -1               2 # C_R C_R C_R H_
    4        0.166667               1               3 # C_R N_R C_3 H_
    5        0.833333              -1               2 # N_R C_3 C_R C_R

Improper Coeffs

    1        2.000000        1.000000       -1.000000        0.000000               0 # C_R C_R O_2 O_2

Pair Coeffs

    1        0.105000        3.430851 # C_R C_R
    2        0.044000        2.571134 # H_ H_
    3        0.060000        3.118146 # O_2 O_2
    4        0.124000        2.461553 # Zn2f2 Zn2f2
    5        0.069000        3.260689 # N_R N_R
    6        0.105000        3.430851 # C_3 C_3

Atoms # full

429 444 2 0 12.308381420742462 11.061847821534306 13.516713136365958 0 0 0
408 444 3 0 12.506478985406872 11.965694267272301 13.250156932752239 0 1 0
430 444 2 0 11.887637807153736 12.557723688207577 12.717192921525722 0 1 0
329 444 2 0 14.551521066769304 9.598267647958812 16.012162140263097 0 1 0
328 444 1 0 15.57354042083518 9.666611787514698 16.497840869694514 0 1 0
401 444 3 0 14.841993691321216 12.18016218102264 15.377322202199068 0 1 0
327 444 1 0 16.24785440946114 10.935018056980377 16.72573379301197 0 1 0
330 444 1 0 15.912760131305872 12.146790129427222 16.005484571261483 0 1 0
419 444 4 0 14.199166529655688 13.225467727773916 13.805117676355245 0 1 0
395 444 3 0 13.409908657245406 14.927282296095534 14.776340457700433 0 0 0
399 444 3 0 15.531756646874895 12.83100422751763 12.351989098908762 0 1 0
397 444 3 0 14.223422255544392 15.213022196556695 12.762375195329552 0 0 0
396 444 3 0 15.144477230785663 15.997134373437387 15.675603045868126 0 0 0
36 444 1 0 13.886905969633636 15.865610819187886 15.504534717559636 0 0 0
398 444 3 0 16.38627218874434 15.72915943117394 13.051674041845285 0 0 0
420 444 4 0 16.69912454601498 14.861820962208615 14.882429735554503 0 1 0
402 444 3 0 16.738830245894725 13.079057938628731 15.77212006105238 0 1 0
270 444 1 0 16.718245763136625 13.216587267480207 12.1577164857206 0 1 0
144 444 1 0 15.257846254742581 15.876391418186923 12.452730743928829 0 0 0
33 444 1 0 12.995474189575418 16.8982591262385 16.107320942881298 0 0 0
35 444 2 0 11.413470757372753 16.46128143571279 14.704939540193156 0 0 0
34 444 1 0 11.707597305017137 17.054438087583847 15.498812542208663 0 0 0
400 444 3 0 17.137716992083778 14.16943690778593 12.878634197578169 0 1 0
141 444 1 0 15.158277639350505 16.831264618995856 11.331500456301473 0 0 0
31 444 1 0 13.424537470016123 17.829074513536128 17.114896392534973 0 0 0
32 444 2 0 14.454302558054115 17.83811534828084 17.414713755040808 0 0 0
142 444 1 0 14.075095853762534 16.887512587443744 10.433235197597936 0 0 0
267 444 1 0 17.286878437122365 13.132005994071655 10.855652712479953 0 1 0
26 444 1 0 10.83842403668114 18.06929381007287 15.971009743737845 0 0 0
143 444 2 0 13.240135277074417 16.176672918167174 10.437087147885153 0 0 0
325 444 1 0 17.257862809663937 10.977132609733095 17.68465665031994 0 1 0
269 444 2 0 16.57298785910322 11.071264061028254 10.725811645297432 0 1 0
1345 444 1 0 23.397184973759224 23.7540544765617 11.163816383243391 0 0 0
29 444 1 0 12.563918758340218 18.88093589554598 17.519302105915855 0 0 0
2537 444 2 0 17.873990198806226 16.696123236854678 17.352450016356425 0 0 0
268 444 1 0 17.10800317993751 11.84448344219058 10.210161433453719 0 1 0
27 444 1 0 11.2918823718512 18.989442750906594 16.986156839338896 0 0 0
30 444 2 0 12.96131059616344 19.506620868109408 18.302255998172306 0 0 0
323 444 1 0 17.72628304540911 9.838715023930709 18.257504508266997 0 1 0
326 444 2 0 17.67913838295947 11.839233112490142 18.07406604621198 0 1 0
265 444 1 0 17.756383036686664 14.149369553557463 10.116605471667725 0 1 0
2536 444 5 0 18.36928359697678 15.34361907770052 15.790336733598588 0 1 0
2533 444 1 0 18.673727948599335 16.22670887047537 16.769262831490416 0 0 0
139 444 1 0 16.25842770066388 17.777359129681564 11.086797277381441 0 0 0
140 444 2 0 17.170136415970347 17.81860461850051 11.680335697966845 0 0 0
2158 444 5 0 25.944632592289295 26.79737314288419 17.934225487044817 0 0 0
25 444 1 0 9.440967000844186 18.090397167926447 15.53182066608079 0 0 0
1342 444 1 0 28.01071047805687 20.88378354964956 11.290935417639453 0 0 0
266 444 2 0 17.796512768604316 15.085169994361054 10.597191618023341 0 1 0
1211 444 1 0 24.967599116919605 9.87046248541432 17.995276972448146 0 0 0
2539 444 2 0 19.408622197050626 13.853361773233683 14.908735128036994 0 1 0
2542 444 2 0 22.62670291262124 15.047368701678874 16.069328590023513 0 0 0
2535 444 1 0 19.469713247992765 14.668823462621042 15.600161454045416 0 1 0
2540 444 5 0 20.51003156704877 15.086690417080835 16.377842848004462 0 1 0
2541 444 6 0 21.88056195971459 14.467769360232538 16.600332181495684 0 1 0
2546 444 1 0 20.917805744411396 12.112780545313242 16.62445824360396 0 0 0
2549 444 1 0 20.836824371256462 10.828669804451835 16.04086543379443 0 0 0
2544 444 1 0 21.873354452594448 13.029069544289033 16.127105584813094 0 1 0
2551 444 1 0 21.820841701421728 10.368147568526611 15.148628239510984 0 0 0
2534 444 1 0 19.983710629001195 16.113517093598205 17.05050862020198 0 0 0
2547 444 1 0 22.70544874950164 11.243163861378077 14.60419753184763 0 1 0
2545 444 1 0 22.824469802938644 12.574872110248274 15.175841028557773 0 1 0
2543 444 2 0 22.07864071080597 14.402223312531259 17.684301412911765 0 1 0
2548 444 2 0 23.634835829791776 13.230184478228184 14.844582613095016 0 1 0
2552 444 2 0 23.42698181870099 10.98527955086242 13.837635646915196 0 1 0
2553 444 2 0 20.010880493285406 10.13889243488412 16.381484876292394 0 0 0
2538 444 2 0 20.4463479602382 16.604073967877508 17.91635089645059 0 0 0
1338 444 2 0 26.05658560999877 18.338573538802514 13.572399360034682 0 0 0
1212 444 2 0 25.142138361124978 10.021629859543987 16.965933705692557 0 0 0
1337 444 1 0 26.63649654506092 19.016248962564635 12.88429804218671 0 0 0
2550 444 2 0 20.18388101943611 12.431020377570961 17.37366242534582 0 0 0
1480 444 3 0 22.39422346493395 23.02432826370812 10.864217665606068 0 0 0
1336 444 2 0 24.909851094058432 19.87332175151173 11.969559219679956 0 0 0
2058 444 2 0 14.403165671816172 13.944335596592467 17.83550580209179 0 0 0
2167 444 1 0 23.40232163888501 23.295593269128013 17.486488372629065 0 0 0
1335 444 1 0 25.99291607213605 19.7266655642811 11.858673627588967 0 0 0
2445 444 2 0 19.978020589035637 17.59942603650883 9.678860202166616 0 0 0
1214 444 2 0 25.287686506851216 12.035127074542514 18.482978015839084 0 0 0
2176 444 1 0 20.173142349628236 21.935572630908332 16.083761336589344 0 0 0
40 444 2 0 9.548655601242318 21.921768985686256 13.62705589239338 0 0 0
2170 444 2 0 24.3539784172101 23.428984256675566 17.204463200917477 0 0 0
138 444 2 0 17.056492834535288 19.469973615878942 9.947449413070045 0 0 0
1810 444 2 0 24.485076513377194 19.884957328995938 17.631251308648064 0 0 0
1348 444 2 0 21.289225139853713 24.112284092000166 12.984578598336679 0 0 0
39 444 1 0 9.691342035661314 21.436512526261744 12.661548818881762 0 0 0
2188 444 2 0 16.581684274172872 19.439019089893396 13.933087349538699 0 0 0
41 444 1 0 10.765257089672533 21.918291901549246 11.934568774716539 0 0 0
42 444 2 0 11.337990620742438 22.822921009480584 12.274149674634995 0 0 0
137 444 1 0 16.186807614164884 18.758240847270038 10.050071114349084 0 0 0
844 444 3 0 14.86657009904555 24.36671781319668 18.035009952978207 0 0 0
709 444 1 0 17.59494672405663 25.351607259686403 17.917313588958464 0 0 0
770 444 2 0 13.259479296681326 26.542075023858526 15.169347460976919 0 0 0
710 444 2 0 17.273938251794053 24.76884277080406 17.06427095803767 0 0 0
2194 444 2 0 16.420392946009823 22.108537720989546 16.347654889796384 0 0 0
2193 444 2 0 13.969098122248798 20.244774688061774 13.433264453661069 0 0 0
2192 444 1 0 13.4134441814588 21.331010718781318 15.271924850264757 0 0 0
2189 444 5 0 15.485482475541925 20.96521468779205 14.712873606463699 0 0 0
2186 444 6 0 16.68605594712529 20.594647602087928 14.015378359730907 0 0 0
2196 444 5 0 14.20181713423219 21.956746891001245 16.15200409650275 0 0 0
2191 444 1 0 15.47331114617717 21.703286262013865 15.85672747515932 0 0 0
2190 444 1 0 14.221918555860963 20.756931946830164 14.30771457953587 0 0 0
2195 444 2 0 12.348443851229174 21.352894971506377 15.327447656541924 0 0 0
771 444 1 0 12.500453399523593 27.178553853443997 17.116638761216823 0 0 0
2187 444 2 0 16.642258866213677 20.882789133075686 12.942594056066502 0 0 0
846 444 3 0 13.435542257041163 24.924577011523606 17.13481921379591 0 0 0
864 444 4 0 13.482215303393104 22.851170024764418 17.749099882847098 0 0 0
774 444 1 0 12.695590779975161 25.846989816714796 17.740910726664655 0 0 0
43 444 1 0 11.083891741848293 21.37371693887801 10.63711776984091 0 0 0
45 444 1 0 10.333303731060855 20.28850203611973 10.193392138442109 0 0 0
769 444 1 0 12.800166844664881 27.359646908260668 15.788039154688452 0 0 0
2183 444 1 0 17.995196700912025 20.98401501352638 14.68142713882 0 0 0
2185 444 2 0 18.13068902468636 22.966952693028485 13.662725258084816 0 0 0
2184 444 2 0 18.295174478523997 19.133118630349788 15.810324913768092 0 0 0
28 444 2 0 10.626231987937446 19.691125328173612 17.384579488738485 0 0 0
2181 444 1 0 18.556454125006844 22.278356504974212 14.389966198658644 0 0 0
840 444 3 0 11.407016791530472 22.194413608571686 18.193376251624457 0 0 0
2171 444 1 0 20.751597638789857 22.972267372885938 18.30544328124861 0 0 0
1347 444 1 0 22.172679786662776 24.817097459732558 13.149047625554514 0 0 0
2161 444 2 0 26.537141692861063 24.79231576103613 18.137242812563745 0 0 0
1351 444 1 0 23.341360687256227 26.34353783305328 14.692437215745564 0 0 0
1801 444 1 0 27.030394706431817 19.129841775830617 17.6608967087896 0 0 0
1478 444 3 0 24.70304861504824 21.11000101557406 9.92014497249665 0 0 0
1498 444 3 0 25.65591464802596 27.807359784899944 15.148489766952613 0 0 0
1806 444 2 0 26.450417763303314 18.894106963698235 16.77914376844716 0 0 0
2155 444 1 0 24.91054583793685 27.52258338863942 18.402376724569244 0 0 0
1352 444 2 0 23.416254240890208 26.929301909824005 15.637794841357202 0 0 0
1333 444 1 0 25.919789473363103 21.39084244879917 10.040615980630522 0 0 0
1497 444 3 0 26.809358009977966 26.542553821650653 13.851229453859178 0 0 0
1355 444 2 0 25.363611029318065 25.371783789278886 12.110572311713646 0 0 0
2447 444 2 0 21.00261917810647 19.582904453407618 10.88523603905059 0 0 0
1354 444 1 0 24.434544018508625 25.47077452760466 12.693136959576528 0 0 0
1334 444 1 0 26.665549254166336 20.600146452687262 11.024298633060269 0 0 0
707 444 1 0 18.83942360283165 26.019803443300344 17.916097474083614 0 0 0
1346 444 1 0 23.32896075445121 24.629710752926393 12.366280474032726 0 0 0
2179 444 1 0 18.593833136689078 20.169840047840758 15.617748665047618 0 0 0
2182 444 2 0 19.931048167807557 23.779950078820377 14.96913565271148 0 0 0
708 444 2 0 19.469867646013938 25.784143641814904 17.05542205261075 0 0 0
2178 444 1 0 19.625348730378313 22.791496057671807 15.109165856138635 0 0 0
1356 444 1 0 25.666913154026098 26.95270899140916 14.223443901645124 0 0 0
1349 444 1 0 22.14176434023288 25.742123387587846 14.26088093767538 0 0 0
2444 444 1 0 21.25216486517822 19.438315763983347 9.905549352158904 0 0 0
2173 444 1 0 21.116637335754426 22.537192613001167 16.996629465575655 0 0 0
2177 444 1 0 19.717289445795387 20.64864231726645 16.29049009785287 0 0 0
2180 444 2 0 20.079945437548485 20.068186720886846 17.08667278862455 0 0 0
1353 444 1 0 24.395149496489463 26.350369741382895 13.815069206280793 0 0 0
1536 444 4 0 27.214160292999356 27.570098302084844 16.493644856124636 0 0 0
1479 444 3 0 24.318635627570032 24.021875391994342 10.308363632732789 0 0 0
2174 444 2 0 22.74559280141204 22.434953575166364 15.535886412216387 0 0 0
1477 444 3 0 26.336993843616124 22.547427970358036 9.615658455804962 0 0 0
1350 444 2 0 21.310957333120946 25.99013614501483 14.895716549961556 0 0 0
2169 444 1 0 22.392149391394945 22.784941219671097 16.55921810444669 0 0 0
2062 444 2 0 12.101709927590015 13.119370028296586 18.190093948658827 0 0 0
134 444 1 0 14.018506455362147 17.88227855584434 9.423137324343664 0 0 0
44 444 2 0 11.841130357970984 21.81738883781781 9.995485407928035 0 0 0
2157 444 1 0 25.861504358907347 25.554003620822378 18.417400993560562 0 0 0
1815 444 2 0 22.501435914569544 18.452357842326172 18.032895019566713 0 0 0
46 444 1 0 9.374224319265025 19.770186162421723 11.051523460581592 0 0 0
1339 444 1 0 28.023586938904717 19.03984044479347 12.863464885763904 0 0 0
2054 444 2 0 16.405105556691776 15.332109637469493 18.629322350648945 0 0 0
1808 444 6 0 24.880466873033622 19.796605681733148 18.701187840216107 0 0 0
2053 444 1 0 14.385945059106959 14.54683393982436 18.71243091050627 0 0 0
2055 444 1 0 13.006677388881887 15.535721047681367 20.51607703516987 0 0 0
2059 444 2 0 12.062232972171572 15.701676200357975 20.94718429034696 0 0 0
2052 444 1 0 14.151126642405844 16.083908047339154 21.09512099370526 0 0 0
2050 444 1 0 15.413038159379576 15.898616961570507 20.474970485815373 0 0 0
485 444 1 0 13.269709624680402 15.537725060884489 24.868331042826362 0 0 0
2056 444 2 0 14.020811506967366 16.4155438835079 22.154238880363646 0 0 0
2047 444 1 0 16.665718465580348 15.916860064255305 21.27238086334436 0 0 0
2063 444 5 0 12.455565870762046 12.266527100690048 20.134565850490617 0 0 0
483 444 1 0 11.970657732997696 15.915498970229883 25.006518566323905 0 0 0
487 444 1 0 14.319016098101244 16.262883310773795 25.436581758142196 0 0 0
1254 444 3 0 13.885201638362357 11.403268325552137 24.996551208197886 0 0 0
2049 444 2 0 15.784716988530093 14.9157253382995 22.94402451061507 0 0 0
1159 444 1 0 14.6969126973303 12.008050601960528 25.74556102226874 0 0 0
1253 444 3 0 15.920347228919383 11.523921660856525 25.82269500503321 0 0 0
2045 444 1 0 16.70372446869311 15.287140811033959 22.576525182941815 0 0 0
488 444 2 0 15.322997700695142 15.944810817560167 25.45640587550383 0 0 0
486 444 2 0 13.519073859930838 14.597943044320825 24.26625891024257 0 0 0
1162 444 2 0 12.321461491526417 13.054131730411065 25.973978100968463 0 0 0
2068 444 2 0 14.094186925593606 12.876822100330191 21.390556316741513 0 0 0
1161 444 1 0 12.892874536641374 13.278584220808447 26.824067499620085 0 0 0
2065 444 1 0 13.35093701327465 12.165071887041314 21.054487033558257 0 0 0
1252 444 3 0 16.080894545854687 11.733181855370173 22.562773270384046 0 0 0
484 444 2 0 11.14698330836537 15.33327825223686 24.577873120504062 0 0 0
1150 444 2 0 16.736746086598057 12.590372815834797 20.31702252054511 0 0 0
1160 444 1 0 14.169469495853328 12.772070909317296 26.92523539755715 0 0 0
1147 444 1 0 17.27446548374684 11.48041399504145 22.69199371131549 0 0 0
2070 444 5 0 13.326596142238659 10.957402606875426 21.628530250233354 0 0 0
482 444 1 0 11.644180826531516 17.14346282585033 25.63601133154917 0 0 0
1300 444 4 0 14.55364527678153 10.525252087769633 23.13069255575932 0 0 0
2066 444 1 0 12.280414855248676 10.294910956333846 21.064596117247678 0 0 0
1256 444 3 0 13.723847622412949 9.744495132739393 24.87407025210222 0 0 0
489 444 1 0 13.98465945220749 17.525181388648853 26.042198490896904 0 0 0
481 444 1 0 10.207294530450612 17.718181041302273 25.60761215513263 0 0 0
1299 444 4 0 16.713858498686907 9.821073097798827 25.197114105183708 0 0 0
624 444 3 0 16.018738163185194 17.970485441170933 27.179312575611622 0 0 0
2064 444 1 0 11.806348579128471 11.108691901292106 20.093619978506197 0 0 0
2057 444 1 0 13.183651721868372 14.583816827487643 19.45080168294475 0 0 0
2051 444 1 0 15.469186581236915 15.320047339124203 19.173280231463373 0 0 0
490 444 1 0 12.669090059095694 17.98518272367665 26.04405467075998 0 0 0
2046 444 2 0 17.875669424179133 14.689632536785274 24.298849396464764 0 0 0
2042 444 1 0 17.84081678118486 15.218242019039092 23.372611014609365 0 0 0
2060 444 6 0 12.156414190628862 13.405656979326125 19.22501497216267 0 0 0
1309 444 2 0 18.317631244278793 10.261998625512588 27.27398658495038 0 0 0
2061 444 2 0 11.104592131111906 13.861151050292172 19.49629648839786 0 0 0
1251 444 3 0 17.649813271994223 10.492914801987535 23.41287476496702 0 0 0
595 444 3 0 9.87231574866442 18.588952751661743 26.51034057342173 0 0 0
1149 444 1 0 17.761219639304926 12.77496246764806 20.67421329188526 0 0 0
2160 444 2 0 23.119262762556232 26.821928702302177 19.541720218625922 0 0 0
866 444 2 0 15.102101264436698 27.941303832462598 24.19939426750873 0 0 0
596 444 3 0 9.387405182579974 17.30555982744784 24.71172809156959 0 0 0
2043 444 1 0 17.836374438368697 16.539028150533767 20.847253095594095 0 0 0
2048 444 2 0 17.83803712412852 17.049550913533494 19.886810027441665 0 0 0
1148 444 1 0 18.223062912543895 12.162628613083745 21.820921522561157 0 0 0
1151 444 1 0 18.71793900525477 13.333779616747972 19.859543515174412 0 0 0
2040 444 1 0 19.02033310332829 15.82611885323037 22.883268874848667 0 0 0
1807 444 2 0 26.671067904582593 20.063257040398383 20.867961264516047 0 0 0
2088 444 2 0 25.29902403556933 27.986686443725553 22.93755155882169 0 0 0
1152 444 2 0 18.316336041078973 13.7708452665624 18.992115217365438 0 0 0
1292 444 3 0 18.161157630935897 9.492993812395092 26.728673722040153 0 0 0
2156 444 1 0 24.116584383613567 26.618510381047532 19.056887553221433 0 0 0
2041 444 1 0 19.024391090723633 16.410580498039188 21.62773072673253 0 0 0
2029 444 1 0 19.97281827647538 17.210773074191856 27.23808263892872 0 0 0
2032 444 5 0 18.98022488267549 17.85808060634203 26.56845917792929 0 0 0
2030 444 1 0 20.53076179101189 16.321066457948422 26.284072382518385 0 0 0
2037 444 6 0 20.25051439580592 15.918884849737399 23.803337796549606 0 0 0
2036 444 5 0 19.93130493137196 16.50686601997764 25.088464225401054 0 0 0
1318 444 2 0 24.408943665785696 10.8042515951507 25.237561677927868 0 0 0
2039 444 2 0 20.58944279254282 14.875089820931663 24.07254783611836 0 0 0
1156 444 1 0 19.602562490292023 12.369732686069481 22.250224871446463 0 0 0
1153 444 1 0 20.061552479107547 13.440441568574375 20.166224537833827 0 0 0
1157 444 2 0 19.866034779832255 12.235662911066346 23.33950119255803 0 0 0
1155 444 1 0 20.51982801146356 13.078364633874312 21.404602000372137 0 0 0
1158 444 1 0 21.901165590999476 13.427209911107454 21.75707378849052 0 0 0
1287 444 3 0 22.233599654436453 13.356784749266806 22.943703035283423 0 0 0
1288 444 3 0 22.804049626775004 13.58230373715342 20.895975176293298 0 0 0
1296 444 3 0 23.76229061267033 11.474557251241865 25.005943813329807 0 0 0
1290 444 3 0 24.165803380107466 12.998672191788986 20.83639940886559 0 0 0
1218 444 1 0 24.87597390853373 11.967666432411349 21.127898676549187 0 0 0
1289 444 3 0 25.289134722170914 11.822377934353135 22.304695466430065 0 0 0
1307 444 4 0 24.211633414121543 12.997957686267075 23.662101697401873 0 0 0
1283 444 3 0 26.017334938388686 14.105623980377725 23.893703727154442 0 0 0
1284 444 3 0 26.20798453465313 14.890115298510315 21.81250922794122 0 0 0
1308 444 4 0 24.22088120202742 14.993780000724168 21.582508349989876 0 0 0
1285 444 3 0 24.815200369957637 14.738269811441494 24.801562417704588 0 0 0
1818 444 5 0 23.998544718364904 16.57782564250006 20.26875605618094 0 0 0
1032 444 1 0 24.161896621793616 15.785417168482068 24.528484499278953 0 0 0
1286 444 3 0 23.569510001996946 15.840131621925696 23.38407547433569 0 0 0
1029 444 1 0 24.119384908184216 16.968989740973967 25.365080643028826 0 0 0
1215 444 1 0 24.82515531531387 10.825978592922539 20.23615495831256 0 0 0
2038 444 2 0 21.055085489723552 16.472903812992758 23.254835680672596 0 0 0
1317 444 2 0 22.884112262573964 11.563772651130716 25.380673043680904 0 0 0
1030 444 1 0 24.41432613060845 16.92007076193207 26.760149726000545 0 0 0
1031 444 2 0 24.71244939600219 16.031817256937877 27.28512474466134 0 0 0
924 444 1 0 26.75450888058033 14.573310828409191 22.928771312200414 0 0 0
1154 444 2 0 20.752243519130115 14.048689915434379 19.5007986462777 0 0 0
2034 444 2 0 21.30613822480774 15.600456022961477 26.500651570747987 0 0 0
2044 444 2 0 19.960490596833793 16.648141892470974 21.24732797124991 0 0 0
1216 444 1 0 24.541717714021146 9.544059653430672 20.71702964002355 0 0 0
1814 444 1 0 23.015057039183873 16.783534934357185 19.387506970897824 0 0 0
1217 444 2 0 24.281920374951444 9.420427907916661 21.75109769428913 0 0 0
1813 444 1 0 24.75802912723112 17.664055632205894 20.153471409582437 0 0 0
2031 444 1 0 19.080614830363537 17.557108772257656 25.26622940682399 0 0 0
1816 444 2 0 25.66710746479423 17.796656666304955 20.785385741973975 0 0 0
2035 444 2 0 18.352596465632338 17.885811594407073 24.559862889938724 0 0 0
1022 444 1 0 24.19251862913379 18.08681111182647 27.4948016761801 0 0 0
1027 444 1 0 23.76929535161394 18.178406976860057 24.74718906943898 0 0 0
1028 444 2 0 23.56360434288142 18.166424434462016 23.733732336760852 0 0 0
1812 444 1 0 23.13632624726847 18.00050448901444 18.769397724223275 0 0 0
492 444 1 0 15.02581794135979 18.414392484461274 26.59480100523281 0 0 0
711 444 1 0 16.80373947170407 25.47491237353737 19.041305778183702 0 0 0
719 444 1 0 22.527025695566323 27.759953701400207 27.563964552626526 0 0 0
478 444 1 0 9.770780269068167 20.671583006179297 21.052878104384902 0 0 0
703 444 1 0 18.69354314064543 27.997922989537983 21.132897032467262 0 0 0
876 444 2 0 9.757954459733531 22.35626573283623 26.70761995623982 0 0 0
714 444 1 0 15.430123388896995 24.778177103151393 19.065063579676636 0 0 0
491 444 2 0 12.434194706799536 18.873770328639417 26.607519961700053 0 0 0
878 444 2 0 14.234276601319484 23.809480335098556 27.33910604994735 0 0 0
479 444 2 0 10.591313090900005 20.79485392257895 21.710925048880842 0 0 0
842 444 3 0 14.510053747273346 21.808557916618238 19.13047538607736 0 0 0
627 444 3 0 17.896486729588823 22.099886927145484 27.42006318515333 0 0 0
874 444 2 0 11.295942332206064 25.593222412101078 22.365041199018158 0 0 0
652 444 4 0 17.727535709738888 19.302042768885936 27.112438309857612 0 0 0
626 444 3 0 17.77050232557539 20.053796073703715 25.232122102121917 0 0 0
623 444 3 0 14.90179234157113 19.684956168858903 26.375325792126944 0 0 0
712 444 1 0 17.092838132448048 26.466435459784638 20.026005383756075 0 0 0
480 444 1 0 10.895230205208632 22.090935135667323 19.35975272626655 0 0 0
852 444 3 0 12.269606908190806 25.54082127494529 22.07318512849671 0 0 0
588 444 1 0 14.81726439850339 22.06488328403219 20.34310310085268 0 0 0
839 444 3 0 11.342111727111877 22.781196758846527 20.350411035473353 0 0 0
585 444 1 0 15.779919401402912 21.26507328897258 21.07017497033521 0 0 0
586 444 1 0 15.737696909905962 21.114586527563937 22.42991190699285 0 0 0
651 444 4 0 15.884525470272457 21.53308388089928 27.05952182275982 0 0 0
587 444 2 0 14.93822961274926 21.60308381621116 23.009562742125738 0 0 0
863 444 4 0 12.73918353203128 24.326636670587867 20.409849009153273 0 0 0
625 444 3 0 15.700565184245072 20.71083025151948 25.271303699837276 0 0 0
841 444 3 0 14.363499263893218 23.089892319230188 20.92340771382308 0 0 0
578 444 1 0 16.75546605368467 20.467845628881282 23.129084897683562 0 0 0
577 444 1 0 16.795723813026736 20.51427682442209 24.59478504852165 0 0 0
843 444 3 0 14.914574173986331 24.542831744256823 20.250707328448456 0 0 0
583 444 1 0 16.79824744857257 20.691923932262025 20.30554528473746 0 0 0
713 444 2 0 16.315844581985807 26.556580027835466 20.846518012106852 0 0 0
873 444 2 0 12.81211041698727 26.30223301508746 22.330815380071055 0 0 0
641 444 3 0 14.990076852337266 23.389618435243086 26.82533853363947 0 0 0
579 444 1 0 17.929261430374623 20.07539477350906 22.37842030903529 0 0 0
581 444 1 0 17.84894502571514 20.060808335358246 20.99278130771799 0 0 0
704 444 1 0 18.29280103710164 27.05090448367173 20.001476615169675 0 0 0
584 444 2 0 16.77555221992441 20.745524405438992 19.268130489564683 0 0 0
477 444 1 0 9.864373684978439 21.14872218283368 19.73260746057241 0 0 0
877 444 2 0 15.449884200688802 23.844720170879 26.03709294334696 0 0 0
1168 444 1 0 14.91028209342036 12.897686744629906 28.115473450276202 0 0 0
1803 444 1 0 27.090809256853433 19.681126742689514 19.991135106703158 0 0 0
807 444 3 0 18.05289321314113 27.87453184382639 22.276256272796985 0 0 0
637 444 3 0 10.143508147106864 21.4961455454708 26.385570583862023 1 0 0
2067 444 2 0 10.963350544527179 10.963654275372388 19.430088511963223 0 0 0
2172 444 2 0 21.6012816824386 23.492462297216527 20.27948767135332 0 0 0
717 444 1 0 21.753219043351514 28.002531587036582 26.426619136172654 0 0 0
1026 444 2 0 23.12324425558179 20.214615690198542 25.040689646530197 0 0 0
1024 444 2 0 23.343794510516243 20.062841657928907 27.375341822799065 0 0 0
1023 444 1 0 23.728515116526346 19.27662470962789 26.830202825816613 0 0 0
2165 444 2 0 23.919042412662503 24.27144446980749 20.787585177527948 0 0 0
2164 444 2 0 24.999996615860518 23.472456386519244 19.785593180335727 0 0 0
2168 444 1 0 21.776523754254498 23.4588016946408 19.20343394458696 0 0 0
1213 444 1 0 24.996663051581297 10.994776569959166 18.84397804220839 0 0 0
324 444 2 0 18.463050415998964 9.930949049612137 19.024556540444358 0 1 0
2163 444 6 0 24.185994724595993 24.130755358736362 19.68546601154627 0 0 0
2162 444 5 0 24.73402742440588 25.408457797598267 19.11736794162475 0 0 0
1164 444 2 0 11.40571957725209 14.403264948159038 27.804195396904703 0 0 0
1817 444 2 0 22.182583466321823 16.114410543225198 19.293428280545744 0 0 0
706 444 2 0 19.9844724500176 27.5605064510697 18.787236238195902 0 0 0
1809 444 2 0 24.62080044815469 20.688553799385264 19.309653604198232 0 0 0
580 444 2 0 18.817046875269696 19.54348229410828 22.848112341151136 0 0 0
582 444 2 0 18.46808346580888 19.371535409783434 20.402709828878102 0 0 0
2166 444 1 0 23.089813451640232 23.64644566202563 18.758612649861917 0 0 0
1811 444 5 0 24.283916899863236 18.540891619249976 19.20039434408548 0 0 0
845 444 3 0 12.216291999433668 25.64507282211787 18.917888284847017 0 0 0
1025 444 1 0 23.476264938328384 19.292214220231287 25.49779074205938 0 0 0
865 444 2 0 16.255624614679828 27.461002366762216 25.26921914552146 0 0 0
1805 444 1 0 26.39635305459832 19.66383271276228 18.78054553660618 0 0 0
718 444 2 0 22.176942164954106 27.619294079601307 25.54019253524951 0 0 0
705 444 1 0 19.176684016657454 26.92702973387421 18.86764057135707 0 0 0
875 444 2 0 11.092212075572954 21.403066081324383 26.36887346268352 1 0 0
720 444 2 0 23.539567252638115 27.264897307660107 27.500225837434453 0 0 0
1163 444 1 0 12.429643171354563 14.063024262049861 27.917178404930443 0 0 0