LAMMPS data file via write_data, version 7 Feb 2024, timestep = 9538786, units = real

2784 atoms
6 atom types
3240 bonds
12 bond types
6144 angles
23 angle types
6624 dihedrals
5 dihedral types
4032 impropers
1 improper types

3.800000000000002 52.29448699999995 xlo xhi
3.800000000000002 52.27088299999995 ylo yhi
3.800000000000002 52.569149999999944 zlo zhi
-0.057189 0.004121 -0.061161 xy xz yz

Masses

    1    12.010700000 # C_R
    2     1.007940000 # H_
    3    15.999400000 # O_2
    4    65.380000000 # Zn2f2
    5    14.006700000 # N_R
    6    12.010700000 # C_3

Bond Coeffs

    1      391.669513        1.458000  # C_R C_R
    2      714.557442        1.269010  # C_R O_2
    3      462.655054        1.379256  # C_R C_R
    4      357.440381        1.081418  # C_R H_
    5      111.058393        2.079698  # O_2 Zn2f2
    6      602.435128        0.966432  # O_2 H_
    7       19.441823        3.080101  # Zn2f2 Zn2f2
    8      140.566051        1.988323  # Zn2f2 N_R
    9      663.718927        1.345073  # C_R N_R
   10      529.724731        1.450075  # N_R C_3
   11      331.069389        1.109401  # C_3 H_
   12      369.943935        1.486000  # C_3 C_R

Angle Coeffs

    1              cosine/periodic      137.714246              -1               3 # C_R C_R O_2
    2              cosine/periodic      206.778426              -1               3 # O_2 C_R O_2
    3              cosine/periodic      102.183280              -1               3 # C_R C_R C_R
    4              cosine/periodic      111.297508              -1               3 # C_R C_R C_R
    5              cosine/periodic       57.289016              -1               3 # C_R C_R H_
    6              cosine/periodic       39.441082              -1               3 # C_R O_2 Zn2f2
    7              cosine/periodic       17.706467              -1               3 # Zn2f2 O_2 H_
    8              cosine/periodic       44.863234              -1               3 # H_ O_2 H_
    9              cosine/periodic       46.978550              -1               3 # O_2 Zn2f2 O_2
   10              cosine/periodic       13.328014              -1               3 # O_2 Zn2f2 Zn2f2
   11              cosine/periodic       55.506670              -1               3 # O_2 Zn2f2 N_R
   12              cosine/periodic       15.376901              -1               3 # Zn2f2 Zn2f2 N_R
   13              cosine/periodic      153.699352              -1               3 # C_R C_R N_R
   14              cosine/periodic       79.786967              -1               3 # N_R C_R H_
   15              cosine/periodic      212.442573              -1               3 # N_R C_R N_R
   16              cosine/periodic       41.111398              -1               3 # Zn2f2 N_R C_R
   17              cosine/periodic      120.000516              -1               3 # C_R N_R C_R
   18              cosine/periodic      106.782348              -1               3 # C_R N_R C_3
   19                      fourier      170.007371        0.343737        0.374972        0.281246 # N_R C_3 H_
   20                      fourier      312.548166        0.343737        0.374972        0.281246 # N_R C_3 C_R
   21                      fourier       75.498766        0.343737        0.374972        0.281246 # H_ C_3 H_
   22                      fourier      121.777217        0.343737        0.374972        0.281246 # H_ C_3 C_R
   23              cosine/periodic       99.137149              -1               3 # C_3 C_R C_R

Dihedral Coeffs

    1        1.250000              -1               2 # O_2 C_R C_R C_R
    2        6.737110              -1               2 # C_R C_R O_2 Zn2f2
    3        3.368555              -1               2 # C_R C_R C_R H_
    4        0.166667               1               3 # C_R N_R C_3 H_
    5        0.833333              -1               2 # N_R C_3 C_R C_R

Improper Coeffs

    1        2.000000        1.000000       -1.000000        0.000000               0 # C_R C_R O_2 O_2

Pair Coeffs

    1        0.105000        3.430851 # C_R C_R
    2        0.044000        2.571134 # H_ H_
    3        0.060000        3.118146 # O_2 O_2
    4        0.124000        2.461553 # Zn2f2 Zn2f2
    5        0.069000        3.260689 # N_R N_R
    6        0.105000        3.430851 # C_3 C_3

Atoms # full

134 444 1 0 11.101596065578738 7.055385188052897 9.87863294111174 0 0 0
135 444 1 0 11.949889307178907 7.397952295018409 10.93374164712904 0 0 0
137 444 1 0 12.545685151687676 6.433623230684494 11.732835651447987 0 0 0
139 444 1 0 12.26650182499722 5.084716771440014 11.515596380479693 0 0 0
142 444 1 0 10.857443465311844 5.68820184170587 9.663321794375376 0 0 0
143 444 2 0 10.262408194871288 5.384967024996373 8.845749948519865 0 0 0
181 444 3 0 10.089862271409242 7.791082502129783 7.918653848456303 0 0 0
136 444 2 0 12.178576787889916 8.448141405380937 11.089341404364516 0 0 0
138 444 2 0 13.261162059543624 6.73298317155528 12.474179007796803 0 0 0
47 444 2 0 5.601699589042716 7.917949788960989 9.907696980932618 0 0 0
46 444 1 0 5.584259103614854 8.694340440379916 10.657985792167494 0 0 0
179 444 3 0 7.197515064989204 9.265410214440443 8.339102755061534 0 0 0
182 444 3 0 10.245562003390615 9.234472987968735 9.53904265336563 0 0 0
133 444 1 0 10.45098871557199 8.083531598861285 9.079716775684222 0 0 0
48 444 1 0 7.558251505043209 9.723684423677193 9.431026742895801 0 0 0
207 444 4 0 8.491804426915529 8.70882853870997 6.8569447187270605 0 0 0
45 444 1 0 6.581329195324173 9.695330969699432 10.573483048030976 0 0 0
197 444 3 0 7.664033014043515 7.008863582694291 5.952033684071825 0 0 1
184 444 3 0 11.031956180155731 9.940388271037165 6.175338938018035 0 0 1
177 444 3 0 8.044187767400377 10.578119483507525 5.892814023287 0 0 1
434 444 2 0 7.828042753099345 6.844714587759142 5.009581793575747 0 0 1
180 444 3 0 8.75747774249538 10.119432249042498 9.576951618445278 0 0 0
433 444 2 0 6.9877701665716305 6.496860892862898 6.444034419779339 0 0 0
43 444 1 0 6.598958218200085 10.69677428426623 11.562050472382987 0 0 0
41 444 1 0 5.626915966019168 10.733636920987076 12.589834268432305 0 0 0
183 444 3 0 9.166755665163212 9.678666960186531 5.089233294682426 0 0 1
306 444 1 0 10.438930087197372 9.84607238854394 5.067736559164431 0 0 1
208 444 4 0 10.224445484619771 10.664478798130883 8.011193591023844 0 0 0
38 444 1 0 4.649848050624857 8.675827329873782 11.709051673224913 0 0 0
42 444 2 0 5.707300208127784 11.480758553385078 13.33813862521241 0 0 0
2411 444 2 0 13.069238728057707 10.509008581080323 9.64010805480883 0 0 1
39 444 1 0 4.65643964351568 9.73500078035685 12.62180638091548 0 0 0
44 444 2 0 7.333095920232317 11.48901913611533 11.526976809183372 0 0 0
25 444 1 0 4.559561847674065 4.561593036242579 12.932039599353475 0 0 0
149 444 3 0 4.380091690176309 4.9214293820517305 11.719255951086703 0 0 0
40 444 2 0 3.9736052952211898 9.745241027661114 13.47200842878856 0 0 0
151 444 3 0 3.9257874549700786 6.428669769759929 11.19905534824746 0 0 0
2415 444 6 0 13.40980584451534 15.047233338946738 8.823049760785446 0 0 0
141 444 1 0 11.391479536288061 4.692470766121616 10.497260228625644 0 0 0
302 444 2 0 12.876612329750973 10.907118221631915 4.722237113766249 0 0 1
140 444 2 0 12.694478919362478 4.340116392684348 12.125133622176065 0 0 0
301 444 1 0 12.459722789729623 10.485963752292648 3.8310943300001328 0 0 1
303 444 1 0 11.20343173052632 9.90986340895289 3.8199696001155545 0 0 1
131 444 2 0 5.977792768685706 11.460390741244604 4.628963488215669 0 0 1
132 444 1 0 8.016667095662672 11.749331231426327 6.389447249595779 0 0 1
2407 444 1 0 12.776244173752394 11.508048297820476 9.322166221883341 0 0 1
2420 444 1 0 13.312230948464137 16.181423495404534 6.639831349398099 0 0 1
2421 444 1 0 15.687261372528205 15.022240072722415 5.724104275918827 0 0 0
125 444 1 0 6.764557569948218 15.147179197438245 5.303920295156681 0 0 1
2427 444 2 0 13.179959428848036 17.108582209834207 4.694740457075945 0 0 1
28 444 2 0 5.447184458729661 4.132508327312057 15.484252083761653 0 0 0
126 444 2 0 6.9663644752603595 16.189892536626104 5.4621292654443385 0 0 1
2419 444 1 0 15.214223752820393 14.742217351388804 7.0351212009107815 0 0 0
2409 444 1 0 11.817775293493925 13.140565956558772 8.32322046250898 0 0 0
2410 444 5 0 11.724495731336116 11.820183477509659 8.558233402704564 0 0 0
2425 444 1 0 14.978121252625572 15.881321156217068 4.901803333312447 0 0 1
178 444 3 0 8.714135925158056 12.003989649013125 7.441454586774574 0 0 1
2414 444 5 0 12.932513718377862 13.668342831891966 8.902508979952225 0 0 0
2412 444 2 0 14.475627339820491 12.668928561985512 10.043821915463495 0 0 1
2408 444 1 0 13.580033617944464 12.61964308135124 9.44944576863751 0 0 1
2417 444 2 0 14.251063397855152 15.249373845107227 9.578038877735358 0 0 0
2416 444 2 0 12.546981134960584 15.714656089766732 9.032933100646172 0 0 1
2424 444 2 0 12.413384370689649 16.635047704758556 7.012104481537925 0 0 1
2418 444 1 0 14.003589679231704 15.312430291995193 7.475505765250812 0 0 0
2423 444 1 0 13.75164950918817 16.443314990412176 5.3338967670105255 0 0 1
128 444 2 0 8.260740549393761 14.455885035375198 6.681691446466149 0 0 1
127 444 1 0 7.456356757590231 14.165504972000308 6.029806814775427 0 0 1
130 444 1 0 6.214745268690054 12.497611466914403 4.796877524887588 0 0 1
2413 444 2 0 11.059018376942817 13.74140833040351 7.791822250044357 0 0 0
129 444 1 0 7.24599127952119 12.819041659736582 5.695450631828298 0 0 1
122 444 1 0 5.558899101632149 13.46214582516803 4.0232294407906615 0 0 1
2553 444 2 0 15.213424558602672 4.569900539460558 15.747270824326598 0 0 0
462 444 2 0 4.440916290999404 23.019326237784806 15.818375279519348 1 0 0
123 444 1 0 5.856101886931414 14.78693791757926 4.305710063505235 0 0 1
2422 444 2 0 15.802829208514861 14.044568758298151 7.673396849741204 0 0 0
124 444 2 0 5.279449590240096 15.58588243106776 3.808030202090578 0 0 1
2434 444 2 0 15.296193205311399 18.448711315863807 3.8518397932647783 0 0 1
26 444 1 0 5.823054700576388 3.915344453247088 13.364280064906728 0 0 0
2768 444 2 0 5.033087451468711 10.143250229549299 20.121697415968523 1 0 0
2764 444 1 0 4.301922784961584 11.419998544967926 18.48855030708119 0 0 0
2765 444 1 0 4.241877558549451 10.32796301532652 19.402586898783408 1 0 0
2762 444 2 0 5.417973938984063 12.607505621194564 20.618892261691727 1 0 0
2744 444 1 0 7.697804155575603 17.11768729687105 17.859960567201327 0 0 0
2751 444 6 0 8.882593947820842 15.020676016781584 18.54869156471042 1 0 0
2761 444 1 0 5.42297072248144 12.3666775921999 18.48354401614679 0 0 0
2757 444 1 0 5.917578771290004 12.877010528777332 19.68656873542956 1 0 0
2758 444 2 0 7.342195361861928 14.135221622841936 20.667808946944774 1 0 0
484 444 2 0 8.951344147389975 16.908363546662212 24.234168043209273 0 0 0
2755 444 1 0 7.084148299825712 13.66429537514458 19.714782536617843 1 0 0
2750 444 5 0 8.334779387552839 16.363784141540624 18.758553133688014 1 0 0
2749 444 2 0 8.677778666658885 16.701635567188045 20.835977751801938 1 0 0
483 444 1 0 8.903987741967525 17.40936433073685 25.203311332343088 0 0 0
2745 444 1 0 8.225598348180439 17.01861494785888 19.924616958586064 1 0 0
485 444 1 0 9.45002127540527 16.77577754995849 26.291893421502966 0 0 0
486 444 2 0 10.011081766504782 15.868581236551819 26.23028061359431 0 0 0
482 444 1 0 8.239300373740292 18.653079574372526 25.37179563025388 0 0 0
590 444 3 0 5.297590088168299 18.69791254357994 22.109106012170866 1 0 0
490 444 1 0 8.199791583232427 19.22276617999451 26.66552060260241 0 0 0
487 444 1 0 9.427948015401556 17.35764488083019 27.586945079128657 0 0 0
489 444 1 0 8.792979451000257 18.611121473623907 27.768502411667107 0 0 0
448 444 2 0 4.273298692370617 16.483841051787852 22.902359649148636 1 0 0
2746 444 5 0 7.551081982709076 18.191623273159305 19.776001660031074 1 0 0
2754 444 1 0 7.722458417867686 14.05142853691024 18.493917607719634 1 0 0
2753 444 2 0 9.617432954563872 14.708665859476113 19.31511373384363 1 0 0
445 444 1 0 4.758791105205789 19.10413875120408 23.177235207899834 1 0 0
2743 444 1 0 7.227666563123421 18.247004483575576 18.479200740740694 0 0 0
596 444 3 0 7.970859817598816 19.115472369796095 23.036009325069553 0 0 0
481 444 1 0 7.606719959822639 19.37736032351109 24.229579262691114 0 0 0
2747 444 2 0 6.721614892586725 19.048172287064986 17.99338400828158 0 0 0
2759 444 1 0 6.042842979754472 12.734230591963346 17.301755507976935 0 0 0
644 444 4 0 7.03633115432638 19.487425218909223 21.18484987829286 1 0 0
2756 444 1 0 7.173097793370744 13.545798726938694 17.300761471014553 0 0 0
2748 444 2 0 7.496975266082446 16.845698011848096 16.814323793257063 0 0 0
2752 444 2 0 9.397177930671258 15.0487279337423 17.53438541455446 1 0 0
472 444 2 0 11.55575481854228 19.8244103105313 21.45028829810905 0 0 0
2763 444 2 0 5.5952460373201065 12.374239927922028 16.365797104342434 0 0 0
2760 444 2 0 7.652751185537726 13.809279684437488 16.376229895210255 0 0 0
593 444 3 0 8.28851194918466 22.082048516405155 22.41262381875301 0 0 0
875 444 2 0 6.474420637165565 24.327896250312524 23.866405530551898 1 0 0
461 444 1 0 4.208182207216669 23.1426902747761 16.845577017892474 1 0 0
471 444 1 0 11.682169969048747 20.789156555939908 21.922735212564948 0 0 0
852 444 3 0 9.48625946635746 26.21408022926279 26.57677464210358 0 0 0
840 444 3 0 13.669444986274167 24.337170208509463 24.931881006958804 0 0 0
876 444 2 0 5.127843623039199 23.682590243914582 24.607439000649837 0 0 0
588 444 1 0 13.293561324628822 24.553052443961338 27.601612527813547 0 0 0
469 444 1 0 9.217224134999263 21.248635400085863 22.17486753466567 0 0 0
460 444 2 0 5.3745794482573075 21.52022162642064 17.462339814904855 1 0 0
589 444 3 0 5.147301683119566 20.197345773302878 23.703851174065267 1 0 0
864 444 4 0 14.332168107065757 26.260063609291564 25.313946063783334 0 0 0
839 444 3 0 11.646002795285677 25.120649404121004 24.482098937807066 0 0 0
470 444 1 0 10.61745462817325 21.634765591825314 22.343763710440058 0 0 0
863 444 4 0 11.547257078998438 26.441030888926623 26.11623828462108 0 0 0
844 444 3 0 14.42851442674321 27.44964044681276 26.991341064350124 0 0 0
477 444 1 0 12.2719741863086 23.068930925775383 23.456918889964584 0 0 0
643 444 4 0 6.281252201569392 21.779948405259244 23.015970575447085 1 0 0
873 444 2 0 8.939916417860204 25.81444487806599 25.873148340656687 0 0 0
476 444 2 0 14.306610275149591 22.35550982528928 23.27001606951168 0 0 0
458 444 1 0 4.546708704137389 22.601115606863623 19.165287041351352 1 0 0
479 444 2 0 10.097405090473904 23.430822146712785 23.4055722863658 0 0 0
846 444 3 0 13.2067193112397 27.331267097294322 23.895380934151326 0 0 0
478 444 1 0 10.923204587065086 22.77994993472544 23.126559534349784 0 0 0
491 444 2 0 7.671496565493497 20.15441818922882 26.790446800318744 0 0 0
595 444 3 0 6.718432086554307 20.263994660868107 24.444294383653684 0 0 0
473 444 1 0 12.982329653641079 21.103806985082272 22.29411622408479 0 0 0
841 444 3 0 12.35456915271919 25.409412016697477 27.757491718078874 0 0 0
459 444 1 0 4.763789241031108 22.324429706588614 17.84037236843449 1 0 0
874 444 2 0 9.169601950105598 26.245842095009483 27.508098924703166 0 0 0
474 444 2 0 13.797485895286798 20.41397902365362 21.942279664213988 0 0 0
592 444 3 0 6.325148739182305 21.0835003275626 19.97611011657713 1 0 0
842 444 3 0 14.019487426955607 24.559950684507058 26.537528842945324 0 0 0
637 444 3 0 5.805416625240985 23.632452056519117 23.919615302018688 1 0 0
480 444 1 0 12.547312813791608 24.249166814011122 24.297230680106278 0 0 0
457 444 1 0 5.309647652849451 21.853436790126484 20.222334242033046 1 0 0
475 444 1 0 13.284782614292716 22.188949386439585 23.061979931904823 0 0 0
591 444 3 0 4.989264232979074 22.07819237870287 21.44668345329226 1 0 0
594 444 3 0 8.937586454839847 20.051931005530115 21.954589239803635 0 0 0
2511 444 2 0 12.311289358955635 9.147746891571963 37.008954093434724 0 0 0
2507 444 1 0 12.809238173125546 8.230050031224447 36.720546162224075 0 0 0
2504 444 1 0 12.53407122881392 7.677148472406349 35.45992398706512 0 0 0
2509 444 1 0 13.620227272956244 7.55623899654381 37.67033167947798 0 0 0
2508 444 2 0 11.944317358159699 8.29016563625698 34.77727566718674 0 0 0
2496 444 2 0 12.995721573512467 7.824979234904983 31.966517344813493 0 0 0
2502 444 1 0 13.062789501021658 6.402133340594482 35.16769790210216 0 1 0
2492 444 1 0 13.822137673615938 7.117444959995737 32.06599943656516 0 0 0
2498 444 5 0 13.806273317875252 6.052098930456314 32.88632115098313 0 1 0
2503 444 1 0 13.847554426236613 5.6974492372442125 36.118090553309585 0 1 0
2505 444 1 0 14.16354440921255 6.302392882827273 37.32302157211215 0 1 0
2514 444 1 0 14.125860201296682 9.571612612630874 39.01750222416471 0 0 0
2500 444 2 0 11.790350106415437 6.148765713430415 33.50112045654417 0 1 0
2499 444 6 0 12.743304108782182 5.730518218843114 33.8367906958661 0 1 0
2512 444 1 0 13.889026480472296 8.1903817736604 38.958429917346514 0 0 0
2506 444 2 0 14.216142533766174 4.7459369668427325 35.857310920943135 0 1 0
2493 444 1 0 14.995035915751691 5.450654906851911 32.77900718732444 0 1 0
2501 444 2 0 12.612464862964877 4.6362861635193 33.894291489521194 0 1 0
2518 444 2 0 14.106545824055145 10.192142610653075 38.163380870713894 0 0 0
2491 444 1 0 15.0539458569512 7.137512369069766 31.45525591128072 0 0 0
2516 444 2 0 13.77875456404269 6.3064218970636405 40.08687442660557 0 1 0
2497 444 2 0 15.272716856797786 4.545213758420878 33.300234092084175 0 1 0
2510 444 2 0 14.809937349864384 5.712264165327293 38.03859472532582 0 1 0
2513 444 1 0 13.936317538014384 7.387901367413741 40.13981559218109 0 1 0
857 444 4 0 7.057831863631799 27.401694458257484 36.1261762880695 0 0 0
572 444 2 0 6.701580902016021 17.272797463595822 34.709042962702796 0 0 0
2030 444 1 0 11.309093041169017 15.560520399693713 33.78899593807721 0 0 0
2034 444 2 0 11.406265088604536 14.821340133448958 34.5959821807359 0 0 0
2029 444 1 0 10.623662615459345 16.75085784834642 33.84171903473347 0 0 0
2032 444 5 0 10.547169434647513 17.2787335783582 32.6125937639119 0 0 0
571 444 1 0 5.815832089158408 17.90712480234245 34.76562720377717 0 0 0
2033 444 2 0 10.195436955025059 17.178951285395947 34.73988030113642 0 0 0
2036 444 5 0 11.685901671437469 15.334749513975694 32.555625819647695 0 0 0
2031 444 1 0 11.251825766713194 16.412335537435325 31.844085157955238 0 0 0
2038 444 2 0 12.657067001211711 13.478030590995246 32.86643385828765 0 0 0
652 444 4 0 9.695008434407494 18.970175882859206 32.10559024485122 0 0 0
573 444 1 0 5.674242398816941 18.96150699357084 33.83835407968008 0 0 0
622 444 3 0 8.012561267242358 18.98125894109521 33.26979840798448 0 0 0
570 444 2 0 4.890726666962375 16.793716142895853 36.318474551898404 0 0 0
569 444 1 0 4.774321695015385 17.622359728217706 35.634655403377856 0 0 0
576 444 1 0 6.831654451297064 19.329000715461003 32.969220981971525 0 0 0
574 444 1 0 4.503890982506018 19.723214110270998 33.81069810744233 0 0 0
2042 444 1 0 14.868238603963354 14.960825899160142 32.04217738249726 0 0 0
2037 444 6 0 12.418353795533688 14.17983188238143 32.0321869977089 0 0 0
624 444 3 0 9.246811855423848 18.548360411467662 30.10376838073243 0 0 0
2039 444 2 0 11.75988335690198 13.647602636443782 31.353910817247492 0 0 0
2040 444 1 0 13.694108037064527 14.674125707373598 31.336376732241874 0 0 0
2035 444 2 0 11.379375223548056 16.508004156727544 30.759400488456983 0 0 0
2041 444 1 0 13.671691144789818 14.951963469926474 29.957030862976954 0 0 0
2044 444 2 0 12.789681286116485 14.702286294919448 29.35622072633017 0 0 0
2043 444 1 0 14.752022705735198 15.605463431371678 29.33283521795347 0 0 0
492 444 1 0 8.863529113014305 19.23021215951761 29.116130904788825 0 0 0
2046 444 2 0 14.846053412067535 14.83669492083718 33.14781201923744 0 0 0
621 444 3 0 6.632103353467431 19.92787416950399 31.87877968279652 0 0 0
752 444 1 0 4.700440178332296 24.73592646680134 38.45586534819402 0 0 0
2048 444 2 0 14.714782247675087 15.866860886113537 28.27044145501393 0 0 0
744 444 2 0 13.411683163049684 23.285616841439428 36.34608841206616 0 0 0
750 444 1 0 10.111928742004967 21.736132448382815 33.42496705029725 0 0 0
885 444 2 0 7.093817021971507 27.576528440601603 33.52835194276228 0 0 0
849 444 3 0 6.369505147543084 27.586959973079754 34.16736564255398 0 0 0
2517 444 1 0 14.472660115080604 10.173769409609811 40.25011723920348 0 0 0
582 444 2 0 15.557711733403544 21.024519636604136 29.40809692304936 0 0 0
747 444 1 0 10.640774479274008 22.600596533030238 34.47276420605263 0 0 0
748 444 1 0 9.762336678887658 23.54131197139311 35.06037774127185 0 0 0
822 444 3 0 9.92030093884735 27.82982647400666 37.45185087742539 0 0 0
742 444 2 0 11.934387245336335 25.005207571478874 37.21399079493353 0 0 0
858 444 4 0 8.262542830280072 27.26165962620349 38.75881118763857 0 0 0
886 444 2 0 5.470078871189362 27.80108895411916 33.90338538666619 0 0 0
587 444 2 0 11.245120249276795 23.31477004579822 28.906524953471205 0 0 0
586 444 1 0 12.217782955140086 22.87288933870938 29.086342675552224 0 0 0
581 444 1 0 14.627287793881857 21.57456449632725 29.411361500718467 0 0 0
583 444 1 0 14.573244768058593 22.765464265412202 28.705562575622082 0 0 0
878 444 2 0 6.580760432611507 23.172147931445 29.902013093543758 0 0 0
579 444 1 0 13.524737916665043 21.037238869809727 30.0616001418362 0 0 0
575 444 2 0 4.415271114935178 20.581908540004907 33.14317821282393 0 0 0
626 444 3 0 11.123519857061776 20.344939483304916 31.475275781975004 0 0 0
741 444 1 0 11.578182577814841 24.367721754077717 36.45652790967322 0 0 0
580 444 2 0 13.604457541057565 20.148497092332125 30.623676824586305 0 0 0
625 444 3 0 9.892115108033199 21.467583611516254 30.00654261810928 0 0 0
628 444 3 0 10.669998307447537 20.63650616583633 33.11336075131068 0 0 0
577 444 1 0 11.033445653716711 21.1590904794523 30.48060719674455 0 0 0
739 444 1 0 9.308482229041225 25.498156172899424 36.53119658212944 0 0 0
623 444 3 0 8.612142262900312 20.470562317855368 29.260507073820772 0 0 0
749 444 2 0 8.752018608070783 23.593007899684178 34.73041087669882 0 0 0
651 444 4 0 8.092996953694648 21.32411198637437 31.101607256324225 0 0 0
753 444 1 0 4.811800799912845 23.964591366237208 39.61904676084154 0 0 0
818 444 3 0 6.822694016207011 25.748891994681145 38.774638976454014 0 0 0
745 444 1 0 11.95879446540203 22.500967581145822 34.94221154880041 0 0 0
627 444 3 0 9.087793108883131 22.10697141128824 32.780421137433585 0 0 0
877 444 2 0 6.493410291594296 23.476259860473856 31.54577014602448 0 0 0
815 444 3 0 8.117663153909602 25.560093060368743 36.072722209002805 0 0 0
740 444 1 0 10.248168290846968 24.472253597874968 35.983820645918314 0 0 0
817 444 3 0 5.461125085756129 26.63487723522693 37.2882175867028 0 0 0
641 444 3 0 6.793052907019684 22.887610346550442 30.805867021912118 0 0 0
743 444 1 0 12.40232477624614 23.33832297433366 35.977681837554506 0 0 0
746 444 2 0 12.629704404874703 21.80098400123004 34.51619778725533 0 0 0
816 444 3 0 9.678579662103196 26.28161847615787 37.459412440693306 0 0 0
751 444 1 0 5.6762692942628865 25.781736351865092 38.17336822918557 0 0 0
755 444 1 0 3.9702921236789024 22.8904525438625 39.85475105488266 0 0 0
578 444 1 0 12.252865014141758 21.70854079068186 29.85875307235347 0 0 0
488 444 2 0 10.033814532007106 16.90148320962051 28.36661131300732 0 0 0
585 444 1 0 13.36908667613913 23.421540933552006 28.52493528311738 0 0 0
2494 444 5 0 15.803658899806196 6.093218457506643 31.909744052940937 0 0 0
228 444 2 0 9.757791327843192 5.126602680729713 40.18480551357741 0 1 0
2495 444 2 0 15.405554667838562 7.887225561208409 30.778987112593963 0 0 0
2521 444 2 0 14.675258224525065 11.288961385170092 40.30801960174945 0 0 0
2047 444 1 0 15.88935660480818 15.93905825172857 30.045370577429996 0 0 0
754 444 2 0 5.598846654324343 24.14866453839579 40.37262105569091 0 0 0
584 444 2 0 15.435694374969383 23.14866422039739 28.22130878080989 0 0 0
296 444 1 0 11.347190769389368 9.466666085917204 50.190072054981684 0 0 0
297 444 1 0 12.63993178512726 9.990186620900959 50.221970947854665 0 0 0
304 444 1 0 10.592730463948953 9.44706309627755 51.38542160511199 0 0 0
305 444 2 0 9.590041826839972 9.020867082331412 51.43179143148907 0 0 0
317 444 2 0 6.260030810434227 10.367701678532281 48.35671880854553 0 0 0
371 444 3 0 9.588947925002202 8.670325742385524 48.81652340525459 0 0 0
374 444 3 0 9.17516610669777 9.729269738974446 45.84413619652344 0 0 0
295 444 1 0 10.836262490853455 8.880471232323975 48.93661330872944 0 0 0
307 444 1 0 8.382804697230105 9.907953180544517 46.83208330519793 0 0 0
373 444 3 0 8.331765392434098 9.108335267922794 47.80534594550851 0 0 0
298 444 2 0 13.223107268624874 10.094778879289525 49.32102387343711 0 0 0
372 444 3 0 11.607884550964092 8.749969949955691 47.9335011820069 0 0 0
2532 444 5 0 12.184646318278904 9.636531587632172 44.90449442352629 0 0 0
2525 444 5 0 13.836182646102158 10.146381350829149 43.520655163689206 0 0 0
414 444 4 0 10.893939924805197 8.543086797253434 45.97437615885314 0 0 0
2527 444 1 0 13.255002826556048 9.191729312841588 44.269436072933054 0 0 0
413 444 4 0 8.881101633702299 7.110364285650368 47.56187944464534 0 1 0
2530 444 2 0 13.62158228629822 8.222595802559097 44.363053145034414 0 0 0
375 444 3 0 8.409482453084436 6.796947277652777 45.55741592139148 0 1 0
405 444 3 0 7.449706871467112 5.816584870282561 48.39354235784594 0 1 0
376 444 3 0 10.473708028580514 6.876704682910985 44.780666421988954 0 1 0
234 444 1 0 9.243698887988586 6.593762801722102 44.59395162218397 0 1 0
378 444 3 0 11.40638270845121 6.456127314834861 46.05834911601538 0 1 0
377 444 3 0 10.564290016236573 5.917737152090844 47.98619467536628 0 1 0
282 444 1 0 11.357784790744748 5.674047341980505 47.04156618668947 0 1 0
230 444 2 0 10.409575282284965 6.5600115703597 42.08918831524248 0 1 0
231 444 1 0 8.845940526207173 5.8030531661355225 43.42100598399255 0 1 0
442 444 2 0 6.573753454977645 6.197643302941879 48.562424946305015 0 1 0
229 444 1 0 9.548527817728806 5.8864775059605 42.19018340362191 0 1 0
441 444 2 0 7.563644981109215 4.872938400969675 48.41972673785751 0 1 0
299 444 1 0 13.21559893175927 10.439242122592391 51.43242855744622 0 0 0
2528 444 1 0 12.048381846851456 10.927098630329207 44.52507791821044 0 1 0
316 444 1 0 6.494124767154026 11.239604621686716 47.77750607541142 0 0 0
308 444 1 0 7.578200027318168 11.168496610622407 46.88579796426959 0 0 0
300 444 2 0 14.181084833459847 10.870382083416946 51.51010068804614 0 0 0
2522 444 6 0 15.025176822826046 10.01909183973628 42.69047374310845 0 0 0
2526 444 1 0 13.06946597112667 11.25936959239988 43.68168450869593 0 1 0
2520 444 2 0 14.435269362229493 7.350949005733823 42.21479117633399 0 1 0
232 444 1 0 7.7657187074865215 4.875002299206705 43.50284643608013 0 1 0
233 444 2 0 7.230319254560963 4.738908296447173 44.45188799254524 0 1 0
2524 444 2 0 15.450669224109415 11.030521038798613 42.47929192686665 0 0 0
278 444 2 0 13.339051824787926 4.956021966277215 45.335721317564115 0 1 0
227 444 1 0 9.217895178701637 5.013269540713433 41.12643066596526 0 1 0
224 444 1 0 7.345414650608843 4.126749704490784 42.37676028757254 0 1 0
279 444 1 0 12.082991584870197 4.364522487509772 46.984319414147656 0 1 0
2519 444 1 0 14.62320624377279 9.3948861033037 41.39516278661746 0 0 0
2515 444 1 0 14.33529214861778 7.9994646706610055 41.32980681923389 0 1 0
277 444 1 0 13.032385314867652 4.1387429164423555 45.9849014804379 0 1 0
2531 444 2 0 11.192236297293586 11.563899971670828 44.80190724042661 0 1 0
175 444 3 0 3.9173602163219976 11.349510747034229 49.0911967570511 0 0 0
2428 444 1 0 15.525382099552655 16.221557032998927 52.38990009816897 0 0 0
2211 444 1 0 14.2839148208813 27.94863918479075 42.45041988696455 0 0 0
2217 444 2 0 14.78259071142208 25.104632963897057 40.498478955434074 0 0 0
225 444 1 0 8.078480222446366 4.177274230695077 41.209993944929174 0 1 0
176 444 3 0 4.281943106295383 13.564616378139398 49.300910878577795 0 0 0
310 444 2 0 8.7439969710641 12.279312148613673 45.42537187692043 0 0 0
309 444 1 0 7.896890004219733 12.290340063594092 46.09351935967107 0 0 0
2529 444 2 0 13.198018460645507 12.166350866007583 43.14635597175467 0 1 0
315 444 1 0 5.720916505969432 12.38682986216071 47.856093126398925 0 0 0
318 444 1 0 4.577297982321644 12.431556629631931 48.78229677012631 0 0 0
174 444 3 0 4.115615357374048 13.847693495984204 51.003260860595695 0 0 0
311 444 1 0 7.170156093439629 13.491476267319996 46.22701146454863 0 0 0
313 444 1 0 6.067905357865662 13.529266270151215 47.09622500746301 0 0 0
312 444 2 0 7.48361743949926 14.352007137085332 45.65287436505461 0 0 0
314 444 2 0 5.542590850373955 14.502368274972348 47.17784280555453 0 0 0
121 444 1 0 4.517068979005696 13.006678386313423 51.86876408389283 0 0 0
2198 444 1 0 9.373224165639568 27.721360465834138 42.771030927942085 0 0 0
173 444 3 0 3.9791849258315546 11.872662011688476 51.91455150329108 0 0 0
2523 444 2 0 15.761409302916965 9.378572788237689 43.2474735349411 0 0 0
2203 444 2 0 10.265198837308699 25.52269791373302 40.582003289447194 0 0 0
2207 444 2 0 10.975778046529538 24.87187886036235 43.304973683381505 0 0 0
2200 444 5 0 8.939557863779939 27.220206990337655 40.64221119562783 0 0 0
2213 444 1 0 14.331543230681083 25.834763264845478 41.235785239318375 0 0 0
2430 444 1 0 15.571957164829028 17.55499148127226 51.980535372268804 0 0 0
2199 444 1 0 9.835815793035373 26.3497819708433 41.16297364754564 0 0 0
756 444 2 0 4.001196900343734 22.338452257143974 40.78039211846968 0 0 0
2215 444 1 0 14.888359878422499 27.098751158017084 41.49887058276675 0 0 0
2209 444 1 0 13.086787309429857 27.55090531285383 43.05483776357051 0 0 0
2204 444 5 0 10.11193245735099 26.646529513029027 42.465668480926766 0 0 0
2205 444 6 0 11.11818935008603 25.975594082027573 43.27151068107974 0 0 0
2210 444 1 0 13.150409788406575 25.435899922848744 41.865524645116416 0 0 0
2206 444 2 0 11.040763236801126 26.372671700884982 44.31614492675778 0 0 0
2208 444 1 0 12.488623202370036 26.299034731724575 42.74873366118941 0 0 0
2214 444 2 0 12.744230767726622 24.442733391295793 41.65007349009619 0 0 0