Created on Mon Sep 16 12:29:26 2024 

        2784 atoms
        3240 bonds
        6144 angles
        6624 dihedrals
        4032 impropers

           6 atom types
          12 bond types
          23 angle types
           5 dihedral types
           1 improper types
           0.000000  56.094487 xlo xhi
           0.000000  56.070883 ylo yhi
           0.000000  56.369150 zlo zhi
          -0.057189   0.004121  -0.061161 xy xz yz

Masses

    1    12.010700000 # C_R
    2     1.007940000 # H_
    3    15.999400000 # O_2
    4    65.380000000 # Zn2f2
    5    14.006700000 # N_R
    6    12.010700000 # C_3

Bond Coeffs

    1      391.669513        1.458000  # C_R C_R
    2      714.557442        1.269010  # C_R O_2
    3      462.655054        1.379256  # C_R C_R
    4      357.440381        1.081418  # C_R H_
    5      111.058393        2.079698  # O_2 Zn2f2
    6      602.435128        0.966432  # O_2 H_
    7       19.441823        3.080101  # Zn2f2 Zn2f2
    8      140.566051        1.988323  # Zn2f2 N_R
    9      663.718927        1.345073  # C_R N_R
   10      529.724731        1.450075  # N_R C_3
   11      331.069389        1.109401  # C_3 H_
   12      369.943935        1.486000  # C_3 C_R

Angle Coeffs

    1              cosine/periodic      137.714246              -1               3 # C_R C_R O_2
    2              cosine/periodic      206.778426              -1               3 # O_2 C_R O_2
    3              cosine/periodic      102.183280              -1               3 # C_R C_R C_R
    4              cosine/periodic      111.297508              -1               3 # C_R C_R C_R
    5              cosine/periodic       57.289016              -1               3 # C_R C_R H_
    6              cosine/periodic       39.441082              -1               3 # C_R O_2 Zn2f2
    7              cosine/periodic       17.706467              -1               3 # Zn2f2 O_2 H_
    8              cosine/periodic       44.863234              -1               3 # H_ O_2 H_
    9              cosine/periodic       46.978550              -1               3 # O_2 Zn2f2 O_2
   10              cosine/periodic       13.328014              -1               3 # O_2 Zn2f2 Zn2f2
   11              cosine/periodic       55.506670              -1               3 # O_2 Zn2f2 N_R
   12              cosine/periodic       15.376901              -1               3 # Zn2f2 Zn2f2 N_R
   13              cosine/periodic      153.699352              -1               3 # C_R C_R N_R
   14              cosine/periodic       79.786967              -1               3 # N_R C_R H_
   15              cosine/periodic      212.442573              -1               3 # N_R C_R N_R
   16              cosine/periodic       41.111398              -1               3 # Zn2f2 N_R C_R
   17              cosine/periodic      120.000516              -1               3 # C_R N_R C_R
   18              cosine/periodic      106.782348              -1               3 # C_R N_R C_3
   19                      fourier      170.007371        0.343737        0.374972        0.281246 # N_R C_3 H_
   20                      fourier      312.548166        0.343737        0.374972        0.281246 # N_R C_3 C_R
   21                      fourier       75.498766        0.343737        0.374972        0.281246 # H_ C_3 H_
   22                      fourier      121.777217        0.343737        0.374972        0.281246 # H_ C_3 C_R
   23              cosine/periodic       99.137149              -1               3 # C_3 C_R C_R

Dihedral Coeffs

    1        1.250000              -1               2 # O_2 C_R C_R C_R
    2        6.737110              -1               2 # C_R C_R O_2 Zn2f2
    3        3.368555              -1               2 # C_R C_R C_R H_
    4        0.166667               1               3 # C_R N_R C_3 H_
    5        0.833333              -1               2 # N_R C_3 C_R C_R

Improper Coeffs

    1        2.000000        1.000000       -1.000000        0.000000               0 # C_R C_R O_2 O_2

Pair Coeffs

    1        0.105000        3.430851 # C_R C_R
    2        0.044000        2.571134 # H_ H_
    3        0.060000        3.118146 # O_2 O_2
    4        0.124000        2.461553 # Zn2f2 Zn2f2
    5        0.069000        3.260689 # N_R N_R
    6        0.105000        3.430851 # C_3 C_3

Atoms

       1      444        1   0     54.19892    7.92048    5.46947
       2      444        1   0     53.07643    8.66535    4.73391
       3      444        1   0     52.74212    9.95190    5.03637
       4      444        2   0     53.21510   10.41288    5.71901
       5      444        1   0     51.68694   10.61766    4.33986
       6      444        2   0     51.43440   11.50874    4.54691
       7      444        1   0     51.05056    9.89310    3.34029
       8      444        2   0     50.32796   10.28385    2.86668
       9      444        1   0     51.44397    8.63787    3.03265
      10      444        1   0     52.49500    8.00145    3.69387
      11      444        2   0     52.79099    7.13651    3.43291
      12      444        1   0     50.63887    7.89420    1.88146
      13      444        1   0     54.24093    5.44797    8.05047
      14      444        1   0     53.12781    4.69897    8.83311
      15      444        1   0     52.68626    5.11095   10.05709
      16      444        2   0     53.08154    5.86524   10.47601
      17      444        1   0     51.68753    4.44182   10.66782
      18      444        2   0     51.41989    4.70787   11.53893
      19      444        1   0     51.03630    3.36576   10.05213
      20      444        2   0     50.30435    2.93671   10.48121
      21      444        1   0     51.47644    2.92722    8.80556
      22      444        1   0     52.50610    3.59744    8.17776
      23      444        2   0     52.79471    3.32880    7.31526
      24      444        1   0     50.76682    1.80343    8.09749
      25      444        1   0      1.87555    5.49504    8.04003
      26      444        1   0      3.05748    4.77554    8.69298
      27      444        1   0      3.56488    5.32274    9.89245
      28      444        2   0      3.13347    6.06761   10.29613
      29      444        1   0      4.71383    4.75974   10.49505
      30      444        2   0      5.10927    5.14925   11.26734
      31      444        1   0      5.26793    3.55422    9.88127
      32      444        2   0      6.01319    3.11132   10.27322
      33      444        1   0      4.69687    3.06911    8.73047
      34      444        1   0      3.61143    3.64799    8.12436
      35      444        2   0      3.24618    3.27899    7.32815
      36      444        1   0      5.34554    1.86511    7.97798
      37      444        1   0      1.82194    7.88842    5.50520
      38      444        1   0      2.98266    8.64679    4.75267
      39      444        1   0      3.44435    9.88496    5.23654
      40      444        2   0      3.05199   10.28728    6.00421
      41      444        1   0      4.51529   10.51996    4.53512
      42      444        2   0      4.79620   11.38792    4.80149
      43      444        1   0      5.16737    9.88180    3.45378
      44      444        2   0      5.91002   10.28745    3.01776
      45      444        1   0      4.68477    8.62860    3.05064
      46      444        1   0      3.60177    7.98900    3.70171
      47      444        2   0      3.30910    7.12931    3.42214
      48      444        1   0      5.36545    7.89297    1.90880
      49      444        1   0     48.22418    5.41687   54.46460
      50      444        1   0     47.60385    4.76757   53.21643
      51      444        1   0     46.40970    5.29865   52.68872
      52      444        2   0     46.01175    6.05206   53.10566
      53      444        1   0     45.79042    4.72327   51.53101
      54      444        2   0     44.96548    5.04482   51.19113
      55      444        1   0     46.48701    3.64176   50.91903
      56      444        2   0     46.15501    3.26845   50.11136
      57      444        1   0     47.61506    3.14052   51.46849
      58      444        1   0     48.21692    3.69122   52.59102
      59      444        2   0     49.03283    3.33698   52.92603
      60      444        1   0     48.32953    1.93298   50.73011
      61      444        1   0     48.21324    5.34932    1.84147
      62      444        1   0     47.47744    4.66216    3.04609
      63      444        1   0     46.20183    5.08195    3.48719
      64      444        2   0     45.72654    5.75192    3.00910
      65      444        1   0     45.65283    4.51634    4.60674
      66      444        2   0     44.81602    4.82149    4.93840
      67      444        1   0     46.30039    3.54222    5.22007
      68      444        2   0     45.91554    3.14428    5.99324
      69      444        1   0     47.55330    3.08276    4.75365
      70      444        1   0     48.14651    3.59132    3.67183
      71      444        2   0     48.97140    3.25141    3.34288
      72      444        1   0     48.23827    1.89270    5.53059
      73      444        1   0     50.64752    7.89980   54.54078
      74      444        1   0     51.37796    8.60293   53.39143
      75      444        1   0     50.97991    9.92041   52.96603
      76      444        2   0     50.29469   10.38956   53.43221
      77      444        1   0     51.59353   10.49784   51.87583
      78      444        2   0     51.29052   11.33229   51.53647
      79      444        1   0     52.60795    9.87610   51.31401
      80      444        2   0     53.08102   10.32578   50.62458
      81      444        1   0     53.02848    8.62314   51.65801
      82      444        1   0     52.37349    8.00805   52.75105
      83      444        2   0     52.65648    7.14751   53.03179
      84      444        1   0     54.18864    7.93948   50.88811
      85      444        1   0     48.14845   54.26607    5.39317
      86      444        1   0     47.38069   53.21303    4.65347
      87      444        1   0     46.08482   52.95982    4.86427
      88      444        2   0     45.63128   53.44089    5.54746
      89      444        1   0     45.36994   52.01477    4.11631
      90      444        2   0     44.45317   51.85785    4.29969
      91      444        1   0     46.02353   51.28489    3.07610
      92      444        2   0     45.54345   50.66179    2.54448
      93      444        1   0     47.39956   51.51895    2.86135
      94      444        1   0     48.05103   52.52110    3.60520
      95      444        2   0     48.95247   52.73948    3.40294
      96      444        1   0     48.15654   50.75350    1.85272
      97      444        1   0     50.62961   54.15851    7.96155
      98      444        1   0     51.30763   52.95018    8.65028
      99      444        1   0     50.79585   52.45536    9.83364
     100      444        2   0     50.06141   52.90906   10.22716
     101      444        1   0     51.31263   51.30001   10.49684
     102      444        2   0     50.90044   50.91987   11.26510
     103      444        1   0     52.50240   50.75744    9.90978
     104      444        2   0     52.97730   50.08028   10.37704
     105      444        1   0     52.98163   51.18482    8.69134
     106      444        1   0     52.38725   52.37499    8.09004
     107      444        2   0     52.76361   52.74130    7.29891
     108      444        1   0     54.19214   50.53747    7.95758
     109      444        1   0     54.19223    5.41618   48.30013
     110      444        1   0     53.13261    4.70904   47.59298
     111      444        1   0     52.67481    5.16538   46.28397
     112      444        2   0     53.10633    5.88769   45.84204
     113      444        1   0     51.58089    4.50725   45.68804
     114      444        2   0     51.25998    4.83014   44.85365
     115      444        1   0     50.95402    3.42611   46.25465
     116      444        2   0     50.23713    2.99161   45.80779
     117      444        1   0     51.39231    2.98108   47.50015
     118      444        1   0     52.52169    3.60927   48.14883
     119      444        2   0     52.84581    3.25757   48.96759
     120      444        1   0     50.76645    1.79201   48.18671
     121      444        1   0      1.80396    7.91854   50.97953
     122      444        1   0      2.92116    8.61796   51.73507
     123      444        1   0      3.27369    9.91839   51.33840
     124      444        2   0      2.76493   10.37499   50.67947
     125      444        1   0      4.37454   10.52049   51.91704
     126      444        2   0      4.68568   11.35897   51.60445
     127      444        1   0      5.04175    9.85058   53.00793
     128      444        2   0      5.76938   10.27448   53.44767
     129      444        1   0      4.61804    8.57896   53.41964
     130      444        1   0      3.53274    8.00134   52.78616
     131      444        2   0      3.20967    7.16008   53.08855
     132      444        1   0      5.36359    7.85334   54.51623
     133      444        1   0      7.86775    5.29368    1.83890
     134      444        1   0      8.58237    4.48694    2.91616
     135      444        1   0      9.94471    4.84439    3.25294
     136      444        2   0     10.38453    5.54137    2.77847
     137      444        1   0     10.58346    4.18500    4.24553
     138      444        2   0     11.46464    4.44295    4.48856
     139      444        1   0      9.96072    3.12603    4.91023
     140      444        2   0     10.43386    2.61200    5.55544
     141      444        1   0      8.56956    2.82198    4.60029
     142      444        1   0      7.94148    3.49333    3.57186
     143      444        2   0      7.05579    3.25810    3.32223
     144      444        1   0      7.84797    1.71984    5.45022
     145      444        3   0     54.61271    6.87432    4.95424
     146      444        3   0     54.61243    8.53058    6.50888
     147      444        3   0     54.65261    4.89086    7.01427
     148      444        3   0     54.63555    6.49906    8.61248
     149      444        3   0      1.42074    4.92833    6.98155
     150      444        3   0      1.43673    6.54384    8.57205
     151      444        3   0      1.41455    6.88707    4.96736
     152      444        3   0      1.40510    8.53597    6.54079
     153      444        3   0     49.25656    4.86633   54.86080
     154      444        3   0     47.63290    6.43622   54.89920
     155      444        3   0     49.23731    4.85584    1.41373
     156      444        3   0     47.61396    6.41695    1.41778
     157      444        3   0     51.20784    6.83732    1.45012
     158      444        3   0     49.59581    8.45355    1.47712
     159      444        3   0     51.24331    6.87281   54.92249
     160      444        3   0     49.61517    8.46206   54.97029
     161      444        3   0     49.22122   54.65532    4.91548
     162      444        3   0     47.56759   54.67889    6.45686
     163      444        3   0     51.21397   54.57438    6.94911
     164      444        3   0     49.57663   54.55978    8.53222
     165      444        3   0     51.27005    1.41275    7.01749
     166      444        3   0     49.68514    1.38838    8.59272
     167      444        3   0     49.32968    1.50916    4.98261
     168      444        3   0     47.68837    1.47107    6.58273
     169      444        3   0     54.60026    4.87678   49.35379
     170      444        3   0     54.63728    6.49844   47.79079
     171      444        3   0     54.58997    6.82351   51.43561
     172      444        3   0     54.58809    8.45850   49.89204
     173      444        3   0      1.35506    6.83697   51.47082
     174      444        3   0      1.34795    8.49705   49.92234
     175      444        3   0      1.43501    4.88253   49.40767
     176      444        3   0      1.47198    6.52437   47.86906
     177      444        3   0      4.80327    6.82937   54.95393
     178      444        3   0      6.43257    8.38485   54.95961
     179      444        3   0      4.82838    6.84662    1.49970
     180      444        3   0      6.42761    8.38948    1.48095
     181      444        3   0      6.80791    4.79151    1.42882
     182      444        3   0      8.39633    6.34629    1.42240
     183      444        3   0      6.78341    4.74783   54.94591
     184      444        3   0      8.47132    6.31733   54.95865
     185      444        3   0     51.22788   54.60941   49.36946
     186      444        3   0     49.55918   54.52487   47.81016
     187      444        3   0     49.26311   54.67705   51.44585
     188      444        3   0     47.58018   54.69525   49.91448
     189      444        3   0     49.34968    1.48743   51.34339
     190      444        3   0     47.72874    1.47382   49.72902
     191      444        3   0     51.29095    1.45059   49.28759
     192      444        3   0     49.72759    1.34284   47.68530
     193      444        3   0     56.05904    4.13239    4.29952
     194      444        3   0     51.92766    4.10561   56.31203
     195      444        3   0     52.00016    0.15424    4.27968
     196      444        3   0     55.77799    3.97685   52.06756
     197      444        3   0      4.09368    4.09548   56.33624
     198      444        3   0     52.09718    0.14476   51.99443
     199      444        4   0     56.07013    5.84828    5.94016
     200      444        4   0     56.07182    7.56549    7.61692
     201      444        4   0     50.27142    5.83136    0.00187
     202      444        4   0     48.56335    7.51604    0.02544
     203      444        4   0     50.34083    0.00229    5.93106
     204      444        4   0     48.56214   56.05277    7.59586
     205      444        4   0     56.03811    5.80518   50.46930
     206      444        4   0     56.06192    7.54245   48.80875
     207      444        4   0      5.75219    5.78786    0.01017
     208      444        4   0      7.47036    7.45780    0.01835
     209      444        4   0     50.36820    0.01329   50.39770
     210      444        4   0     48.63501   -0.03297   48.74172
     211      444        1   0      1.84243   48.09005   50.89941
     212      444        1   0      2.96402   47.34503   51.63538
     213      444        1   0      3.29833   46.05848   51.33292
     214      444        2   0      2.82561   45.59656   50.65052
     215      444        1   0      4.35441   45.39286   52.02902
     216      444        2   0      4.60722   44.50086   51.82221
     217      444        1   0      4.99079   46.11743   53.02859
     218      444        2   0      5.71366   45.72574   53.50245
     219      444        1   0      4.59674   47.37157   53.33688
     220      444        1   0      3.54635   48.00908   52.67501
     221      444        2   0      3.25062   48.87308   52.93621
     222      444        1   0      5.40275   48.11539   54.48766
     223      444        1   0      1.80068   50.56162   48.31865
     224      444        1   0      2.91290   51.31047   47.53642
     225      444        1   0      3.35536   50.89865   46.31203
     226      444        2   0      2.95891   50.14514   45.89328
     227      444        1   0      4.35409   51.56777   45.70130
     228      444        2   0      4.62172   51.30172   44.83019
     229      444        1   0      5.00505   52.64477   46.31675
     230      444        2   0      5.73636   53.07274   45.88832
     231      444        1   0      4.56428   53.08222   47.56397
     232      444        1   0      3.53551   52.41216   48.19137
     233      444        2   0      3.24573   52.68158   49.05402
     234      444        1   0      5.27480   54.20616   48.27163
     235      444        1   0     54.16490   50.51534   48.32926
     236      444        1   0     52.98387   51.23498   47.67590
     237      444        1   0     52.47673   50.68685   46.47667
     238      444        2   0     52.90815   49.94198   46.07299
     239      444        1   0     51.32688   51.24971   45.87448
     240      444        2   0     50.93234   50.86034   45.10178
     241      444        1   0     50.77278   52.45522   46.48826
     242      444        2   0     50.02752   52.89812   46.09631
     243      444        1   0     51.34384   52.94034   47.63906
     244      444        1   0     52.43018   52.36160   48.24476
     245      444        2   0     52.79453   52.73046   49.04138
     246      444        1   0     50.69607   54.14448   48.39114
     247      444        1   0     54.21877   48.12102   50.86433
     248      444        1   0     53.05779   47.36358   51.61662
     249      444        1   0     52.59700   46.12557   51.13234
     250      444        2   0     52.98872   45.72216   50.36532
     251      444        1   0     51.52542   45.48948   51.83441
     252      444        2   0     51.24542   44.62167   51.56763
     253      444        1   0     50.87334   46.12765   52.91575
     254      444        2   0     50.13160   45.72214   53.35137
     255      444        1   0     51.35594   47.38084   53.31889
     256      444        1   0     52.43984   48.02059   52.66741
     257      444        2   0     52.73161   48.88014   52.94739
     258      444        1   0     50.67617   48.11662   54.46032
     259      444        1   0      7.81653   50.59257    1.90493
     260      444        1   0      8.43686   51.24188    3.15310
     261      444        1   0      9.63101   50.71079    3.68081
     262      444        2   0     10.02986   49.95754    3.26346
     263      444        1   0     10.25029   51.28617    4.83852
     264      444        2   0     11.07614   50.96477    5.17799
     265      444        1   0      9.55461   52.36783    5.45009
     266      444        2   0      9.88660   52.74114    6.25776
     267      444        1   0      8.42655   52.86907    4.90063
     268      444        1   0      7.82379   52.31822    3.77852
     269      444        2   0      7.00788   52.67246    3.44350
     270      444        1   0      7.71092   54.07740    5.63918
     271      444        1   0      7.82747   50.66012   54.52806
     272      444        1   0      8.56327   51.34729   53.32344
     273      444        1   0      9.83978   50.92764   52.88193
     274      444        2   0     10.31417   50.25752   53.36043
     275      444        1   0     10.38788   51.49311   51.76279
     276      444        2   0     11.22469   51.18796   51.43113
     277      444        1   0      9.74033   52.46723   51.14946
     278      444        2   0     10.12581   52.86625   50.37564
     279      444        1   0      8.48741   52.92669   51.61588
     280      444        1   0      7.89420   52.41812   52.69770
     281      444        2   0      7.06931   52.75803   53.02665
     282      444        1   0      7.80334   54.11689   50.83853
     283      444        1   0      5.39320   48.10964    1.82875
     284      444        1   0      4.66365   47.40667    2.97770
     285      444        1   0      5.06170   46.08918    3.40309
     286      444        2   0      5.74666   45.62097    2.93667
     287      444        1   0      4.44718   45.51160    4.49370
     288      444        2   0      4.75019   44.67715    4.83306
     289      444        1   0      3.43366   46.13350    5.05511
     290      444        2   0      2.95969   45.68366    5.74495
     291      444        1   0      3.01287   47.38738    4.71087
     292      444        1   0      3.66722   48.00139    3.61848
     293      444        2   0      3.38514   48.86209    3.33733
     294      444        1   0      1.85298   48.07012    5.48101
     295      444        1   0      7.89227    1.74338   50.97636
     296      444        1   0      8.65976    2.79734   51.71582
     297      444        1   0      9.95589    3.04962   51.50526
     298      444        2   0     10.41033    2.56870   50.82166
     299      444        1   0     10.67077    3.99467   52.25322
     300      444        2   0     11.58844    4.15174   52.06943
     301      444        1   0     10.01809    4.72470   53.29303
     302      444        2   0     10.49700    5.34859   53.82481
     303      444        1   0      8.64205    4.49064   53.50778
     304      444        1   0      7.99058    3.48849   52.76392
     305      444        2   0      7.08824    3.26996   52.96659
     306      444        1   0      7.88417    5.25595   54.51681
     307      444        1   0      5.41200    1.85108   48.40758
     308      444        1   0      4.73309    3.05927   47.71925
     309      444        1   0      5.24486    3.55408   46.53589
     310      444        2   0      5.98021    3.10053   46.14196
     311      444        1   0      4.72898    4.70958   45.87228
     312      444        2   0      5.14027    5.08957   45.10443
     313      444        1   0      3.53921    5.25215   46.45934
     314      444        2   0      3.06341    5.92916   45.99249
     315      444        1   0      3.05998    4.82477   47.67778
     316      444        1   0      3.65410    3.63553   48.27884
     317      444        2   0      3.27800    3.26829   49.07021
     318      444        1   0      1.84857    5.47197   48.41195
     319      444        1   0      1.84848   50.59327    8.06940
     320      444        1   0      2.90900   51.30055    8.77614
     321      444        1   0      3.36591   50.84406   10.08556
     322      444        2   0      2.93439   50.12176   10.52749
     323      444        1   0      4.46072   51.50234   10.68108
     324      444        2   0      4.78047   51.18024   11.51564
     325      444        1   0      5.08669   52.58334   10.11488
     326      444        2   0      5.80449   53.01798   10.56133
     327      444        1   0      4.64930   53.02851    8.86897
     328      444        1   0      3.51902   52.40018    8.22070
     329      444        2   0      3.19464   52.75281    7.40170
     330      444        1   0      5.27516   54.21758    8.18242
     331      444        1   0     54.23675   48.09090    5.39000
     332      444        1   0     53.12045   47.39163    4.63405
     333      444        1   0     52.76766   46.09214    5.03048
     334      444        2   0     53.27668   45.63460    5.68965
     335      444        1   0     51.66708   45.48910    4.45208
     336      444        2   0     51.35503   44.65047    4.76508
     337      444        1   0     50.99869   46.15980    3.36136
     338      444        2   0     50.27223   45.73511    2.92145
     339      444        1   0     51.42357   47.43063    2.94948
     340      444        1   0     52.50797   48.00811    3.58337
     341      444        2   0     52.83168   48.85044    3.28033
     342      444        1   0     50.67712   48.15611    1.85330
     343      444        1   0     48.17360   50.71685   54.52998
     344      444        1   0     47.45924   51.52265   53.45296
     345      444        1   0     46.09600   51.16506   53.11659
     346      444        2   0     45.65618   50.46807   53.59106
     347      444        1   0     45.45726   51.82444   52.12400
     348      444        2   0     44.57607   51.56650   51.88097
     349      444        1   0     46.07973   52.88435   51.45906
     350      444        2   0     45.60685   53.39745   50.81409
     351      444        1   0     47.47205   53.18761   51.76884
     352      444        1   0     48.10013   52.51627   52.79726
     353      444        2   0     48.98582   52.75149   53.04689
     354      444        1   0     48.19274   54.28960   50.91931
     355      444        3   0      1.42890   49.13527   51.41488
     356      444        3   0      1.42829   47.47886   49.86065
     357      444        3   0      1.38874   51.11966   49.35461
     358      444        3   0      1.40607   49.51053   47.75664
     359      444        3   0     54.61997   51.08111   49.38798
     360      444        3   0     54.60462   49.46669   47.79683
     361      444        3   0     54.62680   49.12346   51.40152
     362      444        3   0     54.63651   47.47362   49.82833
     363      444        3   0      6.78415   51.14311    1.50873
     364      444        3   0      8.40782   49.57323    1.47033
     365      444        3   0      6.80404   51.15469   54.95515
     366      444        3   0      8.42675   49.59250   54.95175
     367      444        3   0      4.83261   49.17306   54.91917
     368      444        3   0      6.44580   47.55604   54.89200
     369      444        3   0      4.79740   49.13663    1.44704
     370      444        3   0      6.42554   47.54739    1.39924
     371      444        3   0      6.81949    1.35413   51.45405
     372      444        3   0      8.47376    1.33164   49.91202
     373      444        3   0      4.82764    1.43521   49.42002
     374      444        3   0      6.46382    1.45060   47.83707
     375      444        3   0      4.77066   54.59670   49.35204
     376      444        3   0      6.35648   54.62122   47.77640
     377      444        3   0      6.71103   54.50029   51.38692
     378      444        3   0      8.35235   54.53838   49.78680
     379      444        3   0      1.44109   51.13374    7.01509
     380      444        3   0      1.40433   49.51116    8.57833
     381      444        3   0      1.45048   49.18687    4.93368
     382      444        3   0      1.45262   47.55094    6.47749
     383      444        3   0     54.68539   49.17341    4.89847
     384      444        3   0     54.69277   47.51239    6.44719
     385      444        3   0     54.60660   51.12706    6.96145
     386      444        3   0     54.56937   49.48615    8.49983
     387      444        3   0     51.23744   49.18007    1.41560
     388      444        3   0     49.60814   47.62460    1.40992